SystemName           # default value
SystemLabel     nameofyoursystem                                                                
SpinPolarized              F     # default value
NonCollinearSpin              F     # default value
SpinOrbit              F     # default value
#:block? SpinPolarized              F
#:defined? SpinPolarized              F
#:block? NonCollinearSpin              F
#:defined? NonCollinearSpin              F
#:block? SpinOrbit              F
#:defined? SpinOrbit              F
Spin     none                                 # default value
TimeReversalSymmetry              T     # default value
DebugObjects.Node         0     # default value
DebugObjects              F     # default value
XML.Write              F     # default value
timer_report_threshold          0.000000000         # default value
UseParallelTimer              T     # default value
UseTreeTimer              F     # default value
timing-split-scf-steps              F     # default value
use-walltime              F     # default value
timer-use-inbalance              F     # default value
alloc_report_level         0     # default value
alloc_report_threshold          0.000000000         # default value
xc.functional     GGA                                                                             
xc.authors     PBE                                                                             
#:block? XC.hybrid              F
#:defined? XC.hybrid              F
#:block? XC.cocktail              F
#:defined? XC.cocktail              F
MM.Cutoff          30.00000000     Bohr     # default value
MM.UnitsEnergy     eV     # default value
MM.UnitsDistance     Ang     # default value
Atom.Debug              F     # default value
WriteIonPlotFiles              F     # default value
Atom.Debug.KB.Generation              F     # default value
KB.New.Reference.Orbitals              F     # default value
user-basis              F     # default value
user-basis-netcdf              F     # default value
#:block? DFTU.proj              F
#:defined? DFTU.proj              F
#:block? LDAU.proj              F
#:defined? LDAU.proj              F
Number_of_species              2
%block Chemical_species_label
  1 14 Si
  2 1 H
%endblock Chemical_species_label
ReparametrizePseudos              T     # default value
NewAParameter         0.1000000000E-02     # default value
NewBParameter         0.1000000000E-01     # default value
NewGridRmax          0.000000000         # default value
Restricted.Radial.Grid              T     # default value
Rmax.Radial.Grid          50.00000000         # default value
PAO.BasisSize     DZP                                                                             
PAO.BasisType     split          # default value
PAO.SoftDefault              T     # default value
PAO.SoftInnerRadius         0.9000000000         # default value
PAO.SoftPotential          40.00000000         # default value
PAO.SplitNorm         0.1500000000         # default value
PAO.SplitNormH         -1.000000000         # default value
PAO.Polarization.NonPerturbative              F     # default value
PAO.NonPerturbative.Polarization.Orbitals              F     # default value
PAO.Polarization.NonPerturbative.Fallback              T     # default value
LDAU.ProjectorGenerationMethod         2     # default value
DFTU.ProjectorGenerationMethod         2     # default value
LDAU.EnergyShift         0.5000000000E-01 Ry     # default value
DFTU.EnergyShift         0.5000000000E-01 Ry     # default value
LDAU.CutoffNorm         0.9000000000         # default value
DFTU.CutoffNorm         0.9000000000         # default value
PAO.SoftDefault              T     # default value
PAO.SoftInnerRadius         0.9000000000         # default value
PAO.SoftPotential          40.00000000         # default value
LDAU.ThresholdTol         0.1000000000E-01     # default value
DFTU.ThresholdTol         0.1000000000E-01     # default value
LDAU.PopTol         0.1000000000E-02     # default value
DFTU.PopTol         0.1000000000E-02     # default value
LDAU.PotentialShift              F     # default value
DFTU.PotentialShift              F     # default value
LDAU.FirstIteration              F     # default value
DFTU.FirstIteration              F     # default value
FilterCutoff          0.000000000     Ry     # default value
FilterTol          0.000000000     Ry     # default value
PAO.SplitValence.Legacy              F     # default value
PAO.SplitTailNorm              T     # default value
spin-orbit-strength          1.000000000         # default value
Use.PSML.KB.Projectors              T     # default value
Use.PSML.Vlocal              T     # default value
PSML.KB.Projectors              T     # default value
PSML.Vlocal              T     # default value
psml.chlocal.build.r0         0.4000000000E-02     # default value
psml.chlocal.build.delta         0.5000000000E-02     # default value
psml.chlocal.build.poly_order_rlin         4     # default value
chlocal-use-charge-cutoff-for-vlocal-fit              F     # default value
psml.chlocal.build.rr1         0.1000000000E-02     # default value
psml.chlocal.build.exp_al          1.012000000         # default value
psml.chlocal.build.poly_order_rofi         7     # default value
PAO.EnergyShift         0.2204959331E-01         Ry
# above item originally: PAO.EnergyShift          300.0000000     meV       
PAO.Filter              F     # default value
PAO.Filter              F     # default value
PAO.Filter              F     # default value
PAO.Filter              F     # default value
PAO.OldStylePolorbs              F     # default value
PAO.Filter              F     # default value
Vna.Filter              F     # default value
PCC.Filter              F     # default value
FilterCutoff          0.000000000     Ry     # default value
FilterTol          0.000000000     Ry     # default value
PAO.SplitValence.Legacy              F     # default value
PAO.SplitTailNorm              T     # default value
spin-orbit-strength          1.000000000         # default value
Use.PSML.KB.Projectors              T     # default value
Use.PSML.Vlocal              T     # default value
PSML.KB.Projectors              T     # default value
PSML.Vlocal              T     # default value
psml.chlocal.build.r0         0.4000000000E-02     # default value
psml.chlocal.build.delta         0.5000000000E-02     # default value
psml.chlocal.build.poly_order_rlin         4     # default value
chlocal-use-charge-cutoff-for-vlocal-fit              F     # default value
psml.chlocal.build.rr1         0.1000000000E-02     # default value
psml.chlocal.build.exp_al          1.012000000         # default value
psml.chlocal.build.poly_order_rofi         7     # default value
PAO.EnergyShift         0.2204959331E-01         Ry
# above item originally: PAO.EnergyShift          300.0000000     meV       
PAO.Filter              F     # default value
PAO.Filter              F     # default value
PAO.OldStylePolorbs              F     # default value
PAO.Filter              F     # default value
Vna.Filter              F     # default value
PAO.BasisType     split          # default value
Debug.Elec.Corr              F     # default value
Atom-Setup-Only              F     # default value
UseStructFile              F     # default value
MD.UseStructFile              F     # default value
#:block? LatticeParameters              F
%block LatticeVectors
LatticeConstant          1.889726125           Bohr
# above item originally: LatticeConstant          1.000000000     Ang       
  22.68000000 0.00000000 0.00000000
  -11.34000000 19.64145616 0.00000000
  0.00000000 0.00000000 20.00000000
%endblock LatticeVectors
AtomicCoordinatesFormat     Ang                                                                             
NumberOfAtoms            144
#:block? AtomicCoordinatesOrigin              F
#:defined? AtomicCoordinatesOrigin              F
ZM.UnitsLength     Bohr           # default value
ZM.UnitsAngle     rad            # default value
ZM.ForceTolLength         0.1555740000E-02 Ry/Bohr     # default value
ZM.ForceTolAngle         0.3565490000E-02 Ry/rad     # default value
ZM.MaxDisplLength         0.2000000000     Bohr     # default value
ZM.MaxDisplAngle         0.3000000000E-02 rad     # default value
ZM.CalcAllForces              F     # default value
%block AtomicCoordinatesAndAtomicSpecies
  -0.00000100  0.00000000 -0.36972300 1 #   1: Si
   1.92422400  1.11094800  0.36972300 1 #   2: Si
  -0.00000000  0.00000000 -1.87701200 2 #   3: H
   1.92422400  1.11094800  1.87701200 2 #   4: H
   3.84844900 -0.00000300 -0.36972300 1 #   5: Si
   5.77267300  1.11094400  0.36972400 1 #   6: Si
   3.84844900 -0.00000400 -1.87701200 2 #   7: H
   5.77267300  1.11094400  1.87701300 2 #   8: H
   7.69689800 -0.00000700 -0.36972200 1 #   9: Si
   9.62112300  1.11094000  0.36972400 1 #  10: Si
   7.69689800 -0.00000800 -1.87701100 2 #  11: H
   9.62112200  1.11094100  1.87701300 2 #  12: H
  11.54534700 -0.00001100 -0.36972200 1 #  13: Si
  13.46957200  1.11093700  0.36972500 1 #  14: Si
  11.54534700 -0.00001100 -1.87701100 2 #  15: H
  13.46957100  1.11093700  1.87701400 2 #  16: H
  15.39379600 -0.00001500 -0.36972100 1 #  17: Si
  17.31802100  1.11093300  0.36972500 1 #  18: Si
  15.39379700 -0.00001500 -1.87701000 2 #  19: H
  17.31802100  1.11093300  1.87701400 2 #  20: H
  19.24224600 -0.00001900 -0.36972100 1 #  21: Si
  21.16647000  1.11092900  0.36972600 1 #  22: Si
  19.24224600 -0.00001900 -1.87701000 2 #  23: H
  21.16647000  1.11092900  1.87701500 2 #  24: H
  -1.92422800  3.33285300 -0.36972400 1 #  25: Si
  -0.00000400  4.44380100  0.36972300 1 #  26: Si
  -1.92422800  3.33285300 -1.87701300 2 #  27: H
  -0.00000400  4.44380100  1.87701200 2 #  28: H
   1.92422100  3.33284900 -0.36972300 1 #  29: Si
   3.84844500  4.44379700  0.36972300 1 #  30: Si
   1.92422100  3.33284900 -1.87701200 2 #  31: H
   3.84844500  4.44379700  1.87701200 2 #  32: H
   5.77267000  3.33284600 -0.36972300 1 #  33: Si
   7.69689500  4.44379300  0.36972400 1 #  34: Si
   5.77267000  3.33284500 -1.87701200 2 #  35: H
   7.69689400  4.44379400  1.87701300 2 #  36: H
   9.62111900  3.33284200 -0.36972200 1 #  37: Si
  11.54534400  4.44379000  0.36972400 1 #  38: Si
   9.62112000  3.33284200 -1.87701100 2 #  39: H
  11.54534300  4.44379000  1.87701300 2 #  40: H
  13.46956800  3.33283800 -0.36972200 1 #  41: Si
  15.39379300  4.44378600  0.36972500 1 #  42: Si
  13.46956900  3.33283800 -1.87701100 2 #  43: H
  15.39379300  4.44378600  1.87701400 2 #  44: H
  17.31801800  3.33283400 -0.36972100 1 #  45: Si
  19.24224200  4.44378200  0.36972500 1 #  46: Si
  17.31801800  3.33283400 -1.87701000 2 #  47: H
  19.24224200  4.44378200  1.87701400 2 #  48: H
  -3.84845600  6.66570600 -0.36972400 1 #  49: Si
  -1.92423200  7.77665400  0.36972300 1 #  50: Si
  -3.84845600  6.66570600 -1.87701300 2 #  51: H
  -1.92423200  7.77665400  1.87701100 2 #  52: H
  -0.00000700  6.66570200 -0.36972400 1 #  53: Si
   1.92421700  7.77665000  0.36972300 1 #  54: Si
  -0.00000700  6.66570200 -1.87701300 2 #  55: H
   1.92421700  7.77665000  1.87701200 2 #  56: H
   3.84844200  6.66569800 -0.36972300 1 #  57: Si
   5.77266700  7.77664600  0.36972300 1 #  58: Si
   3.84844200  6.66569800 -1.87701200 2 #  59: H
   5.77266600  7.77664600  1.87701200 2 #  60: H
   7.69689100  6.66569500 -0.36972300 1 #  61: Si
   9.62111600  7.77664200  0.36972400 1 #  62: Si
   7.69689200  6.66569400 -1.87701200 2 #  63: H
   9.62111600  7.77664300  1.87701300 2 #  64: H
  11.54534000  6.66569100 -0.36972200 1 #  65: Si
  13.46956500  7.77663900  0.36972400 1 #  66: Si
  11.54534100  6.66569100 -1.87701100 2 #  67: H
  13.46956500  7.77663900  1.87701300 2 #  68: H
  15.39379000  6.66568700 -0.36972200 1 #  69: Si
  17.31801400  7.77663500  0.36972500 1 #  70: Si
  15.39379000  6.66568700 -1.87701100 2 #  71: H
  17.31801400  7.77663500  1.87701400 2 #  72: H
  -5.77268400  9.99855900 -0.36972500 1 #  73: Si
  -3.84846000 11.10950700  0.36972200 1 #  74: Si
  -5.77268400  9.99855900 -1.87701400 2 #  75: H
  -3.84846000 11.10950700  1.87701100 2 #  76: H
  -1.92423500  9.99855500 -0.36972400 1 #  77: Si
  -0.00001000 11.10950300  0.36972300 1 #  78: Si
  -1.92423500  9.99855500 -1.87701300 2 #  79: H
  -0.00001100 11.10950300  1.87701100 2 #  80: H
   1.92421400  9.99855100 -0.36972400 1 #  81: Si
   3.84843900 11.10949900  0.36972300 1 #  82: Si
   1.92421500  9.99855100 -1.87701300 2 #  83: H
   3.84843800 11.10949900  1.87701200 2 #  84: H
   5.77266300  9.99854800 -0.36972300 1 #  85: Si
   7.69688800 11.10949500  0.36972300 1 #  86: Si
   5.77266400  9.99854700 -1.87701200 2 #  87: H
   7.69688800 11.10949500  1.87701200 2 #  88: H
   9.62111300  9.99854400 -0.36972300 1 #  89: Si
  11.54533700 11.10949100  0.36972400 1 #  90: Si
   9.62111300  9.99854300 -1.87701200 2 #  91: H
  11.54533700 11.10949200  1.87701300 2 #  92: H
  13.46956200  9.99854000 -0.36972200 1 #  93: Si
  15.39378600 11.10948800  0.36972400 1 #  94: Si
  13.46956200  9.99854000 -1.87701100 2 #  95: H
  15.39378600 11.10948800  1.87701300 2 #  96: H
  -7.69691200 13.33141200 -0.36972500 1 #  97: Si
  -5.77268800 14.44236000  0.36972200 1 #  98: Si
  -7.69691200 13.33141200 -1.87701400 2 #  99: H
  -5.77268800 14.44236000  1.87701100 2 # 100: H
  -3.84846300 13.33140800 -0.36972500 1 # 101: Si
  -1.92423800 14.44235600  0.36972200 1 # 102: Si
  -3.84846300 13.33140800 -1.87701400 2 # 103: H
  -1.92423900 14.44235600  1.87701100 2 # 104: H
  -0.00001400 13.33140400 -0.36972400 1 # 105: Si
   1.92421100 14.44235200  0.36972300 1 # 106: Si
  -0.00001300 13.33140400 -1.87701300 2 # 107: H
   1.92421000 14.44235200  1.87701100 2 # 108: H
   3.84843500 13.33140000 -0.36972400 1 # 109: Si
   5.77266000 14.44234800  0.36972300 1 # 110: Si
   3.84843600 13.33140000 -1.87701300 2 # 111: H
   5.77266000 14.44234800  1.87701200 2 # 112: H
   7.69688500 13.33139700 -0.36972300 1 # 113: Si
   9.62110900 14.44234400  0.36972400 1 # 114: Si
   7.69688500 13.33139600 -1.87701200 2 # 115: H
   9.62110900 14.44234500  1.87701200 2 # 116: H
  11.54533400 13.33139300 -0.36972300 1 # 117: Si
  13.46955900 14.44234000  0.36972400 1 # 118: Si
  11.54533400 13.33139300 -1.87701200 2 # 119: H
  13.46955800 14.44234100  1.87701300 2 # 120: H
  -9.62114000 16.66426500 -0.36972600 1 # 121: Si
  -7.69691600 17.77521200  0.36972100 1 # 122: Si
  -9.62114000 16.66426400 -1.87701500 2 # 123: H
  -7.69691600 17.77521300  1.87701000 2 # 124: H
  -5.77269100 16.66426100 -0.36972500 1 # 125: Si
  -3.84846600 17.77520900  0.36972200 1 # 126: Si
  -5.77269100 16.66426100 -1.87701400 2 # 127: H
  -3.84846700 17.77520900  1.87701100 2 # 128: H
  -1.92424200 16.66425700 -0.36972500 1 # 129: Si
  -0.00001700 17.77520500  0.36972200 1 # 130: Si
  -1.92424100 16.66425700 -1.87701400 2 # 131: H
  -0.00001700 17.77520500  1.87701100 2 # 132: H
   1.92420700 16.66425300 -0.36972400 1 # 133: Si
   3.84843200 17.77520100  0.36972300 1 # 134: Si
   1.92420800 16.66425300 -1.87701300 2 # 135: H
   3.84843200 17.77520100  1.87701100 2 # 136: H
   5.77265700 16.66424900 -0.36972400 1 # 137: Si
   7.69688100 17.77519700  0.36972300 1 # 138: Si
   5.77265700 16.66424900 -1.87701300 2 # 139: H
   7.69688100 17.77519700  1.87701200 2 # 140: H
   9.62110600 16.66424600 -0.36972300 1 # 141: Si
  11.54533100 17.77519300  0.36972400 1 # 142: Si
   9.62110600 16.66424500 -1.87701200 2 # 143: H
  11.54533000 17.77519400  1.87701200 2 # 144: H
%endblock AtomicCoordinatesAndAtomicSpecies
UseSaveData              F     # default value
MD.UseSaveXV              F     # default value
MD.UseSaveZM              F     # default value
WriteCoorInitial              T     # default value
MD.TypeOfRun     none     # default value
MD.TypeOfRun     CG     # default value
MD.TypeOfRun     none     # default value
MaxBondDistance          6.000000000     Bohr     # default value
Output-Structure-Only              F     # default value
WriteCoorXmol              T
#:physical? MaxWalltime              F
MaxWalltime         0.1797693135+309     # default value
#:physical? MaxWalltime.Slack              F
MaxWalltime.Slack          5.000000000         # default value
HSetupOnly              F     # default value
LongOutput              F     # default value
WriteDenchar              F     # default value
WriteOrbMom              F     # default value
MullikenInSCF              F     # default value
#:block? MullikenInSCF              F
#:defined? MullikenInSCF              F
SpinInSCF              F     # default value
#:block? SpinInSCF              F
#:defined? SpinInSCF              F
PartialChargesAtEveryGeometry              F     # default value
#:block? PartialChargesAtEveryGeometry              F
#:defined? PartialChargesAtEveryGeometry              F
PartialChargesAtEveryScfStep              F     # default value
#:block? PartialChargesAtEveryScfStep              F
#:defined? PartialChargesAtEveryScfStep              F
WriteMullikenPop         0     # default value
#:block? WriteMullikenPop              F
#:defined? WriteMullikenPop              F
#:block? WriteMullikenPop              F
#:defined? WriteMullikenPop              F
#:block? Charge.Mulliken              F
#:defined? Charge.Mulliken              F
Charge.Mulliken          # default value
Charge.Mulliken.Format         0     # default value
WriteHirshfeldPop              F     # default value
#:block? WriteHirshfeldPop              F
#:defined? WriteHirshfeldPop              F
#:block? Charge.Hirshfeld              F
#:defined? Charge.Hirshfeld              F
WriteVoronoiPop              F     # default value
#:block? WriteVoronoiPop              F
#:defined? WriteVoronoiPop              F
#:block? Charge.Voronoi              F
#:defined? Charge.Voronoi              F
#:block? Charge.Spin              F
#:defined? Charge.Spin              F
MeshCutoff          300.0000000     Ry     # default value
NetCharge          0.000000000         # default value
MinSCFIterations         0     # default value
MaxSCFIterations      1000     # default value
SCF.MustConverge              T     # default value
#:block? TS.MixH              F
#:defined? TS.MixH              F
#:block? MixHamiltonian              F
#:defined? MixHamiltonian              F
#:block? MixCharge              F
#:defined? MixCharge              F
TS.MixH              T     # default value
MixHamiltonian              T     # default value
MixCharge              F     # default value
SCF.Mix     Hamiltonian     # default value
Compat-pre-v4-DM-H              F     # default value
SCF.MixAfterConvergence              F     # default value
SCF.Recompute-H-After-Scf              F     # default value
DM.NumberPulay         0     # default value
DM.NumberBroyden         0     # default value
DM.FIRE.Mixing              F     # default value
DM.MixSCF1              T     # default value
SCF.Mix.First              T     # default value
SCF.Mix.First.Force              F     # default value
DM.PulayOnFile              F     # default value
DM.MixingWeight         0.2500000000         # default value
DM.OccupancyTolerance         0.1000000000E-11     # default value
DM.NumberKick         0     # default value
DM.KickMixingWeight         0.5000000000         # default value
DM.RequireHarrisConvergence              F     # default value
SCF.Harris.Converge              F     # default value
DM.HarrisTolerance         0.7349864435E-05 Ry     # default value
SCF.Harris.Tolerance         0.7349864435E-05 Ry     # default value
SCF.DM.Converge              T     # default value
DM.Tolerance         0.1000000000E-03     # default value
SCF.DM.Tolerance         0.1000000000E-03     # default value
SCF.EDM.Converge              F     # default value
SCF.EDM.Tolerance         0.7349864435E-04 Ry     # default value
SCF.H.Converge              T     # default value
SCF.H.Tolerance         0.7349864435E-04 Ry     # default value
DM.RequireEnergyConvergence              F     # default value
SCF.FreeE.Converge              F     # default value
DM.EnergyTolerance         0.7349864435E-05 Ry     # default value
SCF.FreeE.Tolerance         0.7349864435E-05 Ry     # default value
MonitorForcesInSCF              F     # default value
SCF.MonitorForces              F     # default value
DFTD3              F     # default value
UseSaveData              F     # default value
#:block? UseSaveData              F
#:defined? UseSaveData              F
DM.UseSaveDM              T     # default value
NeglNonOverlapInt              F     # default value
SolutionMethod     diagon     # default value
ElectronicTemperature         0.1900000000E-02 Ry     # default value
FixSpin              F     # default value
Spin.Fix              F     # default value
ON.MaxNumIter      1000     # default value
ON.etol         0.1000000000E-07     # default value
ON.eta          0.000000000     Ry     # default value
ON.eta_alpha          0.000000000     Ry     # default value
ON.eta_beta          0.000000000     Ry     # default value
On.RcLWF          9.500000000     Bohr     # default value
ON.UseSaveLWF              F     # default value
ON.functional     kim     # default value
ON.ChemicalPotentialUse              F     # default value
ON.ChemicalPotential              F     # default value
ON.ChemicalPotentialRc          9.500000000     Bohr     # default value
ON.ChemicalPotentialTemperature         0.5000000000E-01 Ry     # default value
ON.ChemicalPotentialOrder       100     # default value
TDED.WF.Initialize              F     # default value
TDED.Saverho              F     # default value
TDED.Nsaverho       100     # default value
TDED.Write.Etot              T     # default value
TDED.Write.Eig              F     # default value
TDED.Write.Dipole              F     # default value
TDED.Extrapolate              F     # default value
TDED.TimeStep         0.1000000000E-02 fs     # default value
TDED.Nsteps         1     # default value
TDED.Extrapolate.Substeps         3     # default value
TDED.Inverse.Linear              T     # default value
TDED.WF.Save              F     # default value
MD.VariableCell              F     # default value
compat-pre-v4-dynamics              F     # default value
MD.TypeOfRun     cg     # default value
MD.UseSaveCG              F     # default value
Optim.Broyden              F     # default value
#:block? Optim.Broyden              F
#:defined? Optim.Broyden              F
MD.NumCGsteps         0     # default value
MD.Steps         0     # default value
MD.MaxCGDispl         0.2000000000     Bohr     # default value
MD.MaxDispl         0.2000000000     Bohr     # default value
MD.MaxForceTol         0.1555740000E-02 Ry/Bohr     # default value
MD.MaxStressTol         0.6797730000E-04 Ry/Bohr**3     # default value
GeometryMustConverge              F     # default value
MD.InitialTimeStep         1     # default value
#:block? MD.Steps              F
#:defined? MD.Steps              F
MD.FinalTimeStep         1     # default value
MD.LengthTimeStep          1.000000000     fs     # default value
MD.Quench              F     # default value
MD.FireQuench              F     # default value
MD.InitialTemperature          0.000000000     K     # default value
MD.TargetTemperature          0.000000000     K     # default value
#:block? MD.TargetPressure              F
#:defined? MD.TargetPressure              F
MD.TargetPressure          0.000000000     Ry/Bohr**3     # default value
Target.Pressure          0.000000000     Ry/Bohr**3     # default value
MD.NoseMass          100.0000000     Ry*fs**2     # default value
MD.ParrinelloRahmanMass          100.0000000     Ry*fs**2     # default value
MD.AnnealOption     TemperatureAndPressure     # default value
MD.TauRelax          100.0000000     fs     # default value
MD.BulkModulus         0.6797730000E-02 Ry/Bohr**3     # default value
MD.FCDispl         0.4000000000E-01 Bohr     # default value
MD.FCfirst         1     # default value
MD.FClast       144     # default value
UseSpatialDecomposition              F     # default value
UseDomainDecomposition              F     # default value
SCF.Mix.Spin     all     # default value
Mixer.Debug              F     # default value
Mixer.Debug.MPI              F     # default value
DM.NumberPulay         2     # default value
DM.NumberBroyden         0     # default value
DM.MixingWeight         0.2500000000         # default value
DM.NumberKick         0     # default value
DM.KickMixingWeight         0.5000000000         # default value
SCF.LinearMixingAfterPulay              F     # default value
SCF.MixingWeightAfterPulay         0.2500000000         # default value
SCF.Mixer.History         2     # default value
SCF.Mixer.Weight         0.2500000000         # default value
SCF.Mixer.Kick         0     # default value
SCF.Mixer.Kick.Weight         0.5000000000         # default value
SCF.Mixer.Restart         0     # default value
SCF.Mixer.Restart.Save         1     # default value
SCF.Mixer.Method     Pulay     # default value
SCF.Mixer.Variant     original     # default value
SCF.Mixer.Linear.After        -1     # default value
SCF.Mixer.Linear.After.Weight         0.2500000000         # default value
#:block? ChargeGeometries              F
#:defined? ChargeGeometries              F
#:block? ChargeGeometries              F
#:defined? ChargeGeometries              F
BulkBias.V          0.000000000     Ry     # default value
BulkBias.Voltage          0.000000000     Ry     # default value
BulkBias.Tolerance         0.1000000000E-14     # default value
BulkBias.Current              T     # default value
Harris_functional              F     # default value
ForceAuxCell              F     # default value
#:block? Optim.Broyden.History.Steps              F
#:defined? Optim.Broyden.History.Steps              F
#:block? Optim.Broyden.Cycle.On.Maxit              F
#:defined? Optim.Broyden.Cycle.On.Maxit              F
#:block? Optim.Broyden.Variable.Weight              F
#:defined? Optim.Broyden.Variable.Weight              F
#:block? Optim.Broyden.Debug              F
#:defined? Optim.Broyden.Debug              F
#:block? Optim.Broyden.Initial.Inverse.Jacobian              F
#:defined? Optim.Broyden.Initial.Inverse.Jacobian              F
Write.Kpoints              F     # default value
Write.Forces              F     # default value
Write.DM              T     # default value
Write.DM.End.Of.Cycle              T     # default value
Write.H              F     # default value
Write.H.End.Of.Cycle              F     # default value
Write.DM.NetCDF              F     # default value
WriteDM.History.NetCDF              F     # default value
WriteDMHS.NetCDF              F     # default value
WriteDMHS.History.NetCDF              F     # default value
SCF.Read.Charge.NetCDF              F     # default value
SCF.Read.Deformation.Charge.NetCDF              F     # default value
Write.TSHS.History              F     # default value
SaveInitialChargeDensity              F     # default value
AnalyzeChargeDensityOnly              F     # default value
UseNewDiagk              F     # default value
Diag.WFS.Cache     none     # default value
WriteBands              F     # default value
WriteKbands              F     # default value
WriteEigenvalues              F     # default value
WriteCoorStep              F     # default value
WriteMDhistory              F     # default value
WriteMDXmol              T     # default value
WriteOrbitalIndex              T     # default value
Write.Graphviz     none     # default value
WriteCoorStep              F     # default value
SaveHS              T
ReInitialiseDM              T     # default value
DM.AllowReuse              T     # default value
DM.AllowExtrapolation              T     # default value
DM.History.Depth         1     # default value
DM.NormalizationTolerance         0.1000000000E-04     # default value
DM.NormalizeDuringSCF              T     # default value
WarningMinimumAtomicDistance          1.000000000     Bohr     # default value
BornCharge              F     # default value
ChangeKgridInMD              T     # default value
MD.RelaxCellOnly              F     # default value
MD.RemoveIntraMolecularPressure              F     # default value
COOP.Write              F     # default value
SaveRho              F     # default value
SaveDeltaRho              F     # default value
SaveRhoXC              F     # default value
SaveElectrostaticPotential              F     # default value
SaveNeutralAtomPotential              F     # default value
SaveTotalPotential              F     # default value
SaveIonicCharge              F     # default value
SaveBaderCharge              F     # default value
SaveTotalCharge              F     # default value
Siesta2Wannier90.WriteMmn              F     # default value
Siesta2Wannier90.WriteUnk              F     # default value
Siesta2Wannier90.WriteAmn              F     # default value
Siesta2Wannier90.WriteEig              F     # default value
#:block? Siesta2Wannier90.NumberOfBandsUp              F
#:defined? Siesta2Wannier90.NumberOfBandsUp              F
#:block? Siesta2Wannier90.NumberOfBandsDown              F
#:defined? Siesta2Wannier90.NumberOfBandsDown              F
#:block? Siesta2Wannier90.NumberOfBands              F
#:defined? Siesta2Wannier90.NumberOfBands              F
Siesta2Wannier90.NumberOfBandsUp         0     # default value
Siesta2Wannier90.NumberOfBandsDown         0     # default value
Siesta2Wannier90.NumberOfBands         0     # default value
CDF.Save              F     # default value
CDF.Compress         0     # default value
CDF.Read.Parallel              F     # default value
#:block-line-count? Wannier.Manifolds   0
Wannier.Manifolds.R.between              F     # default value
Wannier.Manifold.IndexPerturbed         1     # default value
Wannier.Mmn.Diagonal              F     # default value
DM.AllowReuse              T     # default value
DM.AllowExtrapolation              T     # default value
DM.AllowExtrapolation              F     # default value
NumberOfEigenStates      1296     # default value
RcSpatial          0.000000000     Bohr     # default value
ProcessorGridX         1     # default value
ProcessorGridY         1     # default value
ProcessorGridZ         1     # default value
Spin.Spiral              F     # default value
TimeReversalSymmetryForKpoints              T     # default value
%block kgrid.MonkhorstPack
   10  0  0  0.0
    0 10  0  0.0
    0  0  1  0.0
%endblock kgrid.MonkhorstPack
#:block? ProjectedDensityOfStates              F
#:block? LocalDensityOfStates              F
Diag.ProcessorY         1     # default value
Diag.BlockSize         8     # default value
Diag.Use2D              F     # default value
Diag.UpperLower     lower     # default value
Diag.DivideAndConquer              T     # default value
Diag.MRRR              F     # default value
Diag.NoExpert              F     # default value
Diag.Algorithm     Divide-and-Conquer     # default value
Diag.AbsTol         0.1000000000E-15     # default value
Diag.OrFac         0.1000000000E-05     # default value
Diag.Memory          1.000000000         # default value
#:block? BandLines              T
#:defined? BandLines              T
#:block? BandPoints              F
#:defined? BandPoints              F
BandLinesScale     ReciprocalLatticeVectors                                                        
%block BandLines
    1 0.0000 0.0000 0.0000 Gamma
   20 0.5000 0.0000 0.0000 M
   20 0.3000 0.3000 0.3000 K
   20 0.0000 0.0000 0.0000 Gamma
%endblock BandLines
#:block? BandLines              T
#:defined? BandLines              T
#:block? BandPoints              F
#:defined? BandPoints              F
BandLinesScale     ReciprocalLatticeVectors                                                        
%block BandLines
    1 0.0000 0.0000 0.0000 Gamma
   20 0.5000 0.0000 0.0000 M
   20 0.3000 0.3000 0.3000 K
   20 0.0000 0.0000 0.0000 Gamma
%endblock BandLines
LongOutput              F     # default value
WriteWaveFunctions              F     # default value
#:block-line-count? MetaForce (iirrr)   0
#:block? TS.BufferAtomsLeft              F
#:defined? TS.BufferAtomsLeft              F
#:block? TS.BufferAtomsRight              F
#:defined? TS.BufferAtomsRight              F
#:list? TS.Atoms.Buffer              F
TS.HS.Save              T
TS.DE.Save              F     # default value
TS.onlyS              F     # default value
TS.S.Save              F     # default value
Spin.Spiral              F     # default value
TimeReversalSymmetryForKpoints              T     # default value
#:list? TS.kgrid.MonkhorstPack                                                                                                                                                                                                                                                        F
#:block? TS.kgrid.Cutoff                                                                                                                                                                                                                                                               F
#:defined? TS.kgrid.Cutoff                                                                                                                                                                                                                                                               F
#:block? TS.kgrid.File                                                                                                                                                                                                                                                                 F
#:defined? TS.kgrid.File                                                                                                                                                                                                                                                                 F
LUA.Interactive              F     # default value
LUA.Script           # default value
AtomicCoordinatesFormat     Ang                                                                             
AtomCoorFormatOut     Ang                        # default value
LatticeConstant          1.889726125           Bohr
# above item originally: LatticeConstant          1.000000000     Ang       
debug-folding              F     # default value
Save.Overlap.Gradient              F     # default value
Sonly              F     # default value
File.DM.Init     nameofyoursystem.DM     # default value
DM.Init     atomic     # default value
DM.Init.RandomStates         0     # default value
Sonly              F     # default value
Debug.DHSCF              F     # default value
MeshSubDivisions         2     # default value
#:list? Mesh.Sizes              F
#:block? MeshSizes              F
#:defined? MeshSizes              F
XC.Use.BSC.CellXC              F     # default value
DirectPhi              F     # default value
SimulateDoping              F     # default value
Slab.DipoleCorrection     none     # default value
Read-H-from-file              F     # default value
timing-split-scf-steps              F     # default value
SingleExcitation              F     # default value
OccupationFunction     FD     # default value
OccupationFunction     FD     # default value
timing-split-scf-steps              F     # default value
timing-split-scf-steps              F     # default value
timing-split-scf-steps              F     # default value
timing-split-scf-steps              F     # default value
timing-split-scf-steps              F     # default value
timing-split-scf-steps              F     # default value
timing-split-scf-steps              F     # default value
timing-split-scf-steps              F     # default value
timing-split-scf-steps              F     # default value
timing-split-scf-steps              F     # default value
timing-split-scf-steps              F     # default value
timing-split-scf-steps              F     # default value
compute-forces              T     # default value
#:list? Grid.CellSampling              F
Read-H-from-file              F     # default value
WriteCoorXmol              T
WriteCoorCerius              F     # default value
WFS.Write.For.Bands              F     # default value
BasisPressure         0.2000000000     GPa     # default value
OpticalCalculation              F     # default value
