<preamble>

<basis_specs>
===============================================================================
H                    Z=   1    Mass=  1.0080        Charge= 0.17977+309
Lmxo=1 Lmxkb= 1    BasisType=split      Semic=F
L=0  Nsemic=0  Cnfigmx=1
          i=1  nzeta=2  polorb=1  (1s)  (to be polarized perturbatively)
            splnorm:   0.15000    
               vcte:    40.000    
               rinn:    4.1550    
               qcoe:    0.0000    
               qyuk:    0.0000    
               qwid:   0.10000E-01
                rcs:    4.6120      3.2503    
            lambdas:    1.0000      1.0000    
L=1  Nsemic=0  Cnfigmx=2
          i=1  nzeta=0  polorb=0  (2p)  (perturbative polarization orbital) (from 1s)
-------------------------------------------------------------------------------
L=0  Nkbl=1  erefs: 0.17977+309
L=1  Nkbl=1  erefs: 0.17977+309
===============================================================================
</basis_specs>

<pseudopotential_header>
 H  pb nrl nc  
 ONCVPSP-3.2017-10-31Hamann's oncvpsp                        
 1s 1.00  r= 1.01/2p 0.00  r= 0.71/                                     1s:
</pseudopotential_header>
</preamble>
H                             # Symbol
H                             # Label
    1                         # Atomic number
     1.00000000000                             # Valence charge
     1.00800000000        # Mass 
     2.27454303331        # Self energy 
   1   3                      # Lmax for basis, no. of nl orbitals 
   1   3                      # Lmax for projectors, no. of nl KB projectors
# PAOs:__________________________
  0  1  1  0  1.000000   #orbital l, n, z, is_polarized, population
 500    0.9242506293776499E-02     4.612010640594473     # npts, delta, cutoff
     0.000000000000000         1.641083073928671    
    0.9242506293776499E-02     1.640890036392341    
    0.1848501258755300E-01     1.640319433535582    
    0.2772751888132950E-01     1.639369493622367    
    0.3697002517510600E-01     1.638041803786682    
    0.4621253146888250E-01     1.636338574100492    
    0.5545503776265899E-01     1.634262624449089    
    0.6469754405643549E-01     1.631817368463282    
    0.7394005035021199E-01     1.629006794316181    
    0.8318255664398849E-01     1.625835442555640    
    0.9242506293776499E-01     1.622308381207858    
    0.1016675692315415         1.618431178421905    
    0.1109100755253180         1.614209872950912    
    0.1201525818190945         1.609650942786734    
    0.1293950881128710         1.604761272281197    
    0.1386375944066475         1.599548118098963    
    0.1478801007004240         1.594019074354051    
    0.1571226069942005         1.588182037284606    
    0.1663651132879770         1.582045169818083    
    0.1756076195817535         1.575616866372128    
    0.1848501258755300         1.568905718224969    
    0.1940926321693065         1.561920479773278    
    0.2033351384630830         1.554670035975684    
    0.2125776447568595         1.547163371256260    
    0.2218201510506360         1.539409540115698    
    0.2310626573444125         1.531417639667375    
    0.2403051636381890         1.523196784283304    
    0.2495476699319655         1.514756082500342    
    0.2587901762257420         1.506104616300764    
    0.2680326825195185         1.497251422844409    
    0.2772751888132950         1.488205478691884    
    0.2865176951070715         1.478975686520980    
    0.2957602014008480         1.469570864301604    
    0.3050027076946245         1.459999736858937    
    0.3142452139884009         1.450270929720610    
    0.3234877202821775         1.440392965111917    
    0.3327302265759540         1.430374259933853    
    0.3419727328697305         1.420223125533124    
    0.3512152391635069         1.409947769049746    
    0.3604577454572835         1.399556296109892    
    0.3697002517510600         1.389056714615655    
    0.3789427580448365         1.378456939373192    
    0.3881852643386129         1.367764797293639    
    0.3974277706323894         1.356988032899337    
    0.4066702769261660         1.346134313869426    
    0.4159127832199425         1.335211236365763    
    0.4251552895137189         1.324226329890297    
    0.4343977958074954         1.313187061439359    
    0.4436403021012719         1.302100838738724    
    0.4528828083950485         1.290975012364830    
    0.4621253146888250         1.279816876581660    
    0.4713678209826014         1.268633668750855    
    0.4806103272763779         1.257432567201175    
    0.4898528335701545         1.246220687475144    
    0.4990953398639310         1.235005076903322    
    0.5083378461577075         1.223792707489048    
    0.5175803524514839         1.212590467169872    
    0.5268228587452605         1.201405149307953    
    0.5360653650390369         1.190243440741503    
    0.5453078713328134         1.179111908506981    
    0.5545503776265900         1.168016985126536    
    0.5637928839203664         1.156964952831551    
    0.5730353902141430         1.145961926864917    
    0.5822778965079194         1.135013838077895    
    0.5915204028016959         1.124126415054641    
    0.6007629090954725         1.113305166012170    
    0.6100054153892489         1.102555360733880    
    0.6192479216830254         1.091882012802051    
    0.6284904279768019         1.081289862395629    
    0.6377329342705784         1.070783359920115    
    0.6469754405643550         1.060366650728206    
    0.6562179468581314         1.050043561181991    
    0.6654604531519079         1.039817586292438    
    0.6747029594456844         1.029691879154963    
    0.6839454657394609         1.019669242379113    
    0.6931879720332375         1.009752121686030    
    0.7024304783270139        0.9999426018208133    
    0.7116729846207904        0.9902424048976234    
    0.7209154909145670        0.9806528912642549    
    0.7301579972083434        0.9711750629402157    
    0.7394005035021199        0.9618095696487259    
    0.7486430097958964        0.9525567174288309    
    0.7578855160896729        0.9434164797795463    
    0.7671280223834495        0.9343885112541775    
    0.7763705286772259        0.9254721633901369    
    0.7856130349710024        0.9166665028281338    
    0.7948555412647789        0.9079703314451091    
    0.8040980475585554        0.8993822082979469    
    0.8133405538523319        0.8909004731505773    
    0.8225830601461084        0.8825232713354534    
    0.8318255664398849        0.8742485796821953    
    0.8410680727336614        0.8660742332317213    
    0.8503105790274379        0.8579979524432151    
    0.8595530853212144        0.8500173705945839    
    0.8687955916149909        0.8421300610741229    
    0.8780380979087674        0.8343335642623730    
    0.8872806042025438        0.8266254137084349    
    0.8965231104963204        0.8190031613141832    
    0.9057656167900969        0.8114644012528403    
    0.9150081230838734        0.8040067923649875    
    0.9242506293776499        0.7966280787950847    
    0.9334931356714264        0.7893261086545806    
    0.9427356419652029        0.7820988505235215    
    0.9519781482589794        0.7749444076306808    
    0.9612206545527558        0.7678610295824125    
    0.9704631608465324        0.7608471215413153    
    0.9797056671403089        0.7539012508149600    
    0.9889481734340854        0.7470221508467102    
    0.9981906797278619        0.7402087212482475    
     1.007433186021638        0.7334600307756656    
     1.016675692315415        0.7267753065674785    
     1.025918198609191        0.7201538747445130    
     1.035160704902968        0.7135950925644067    
     1.044403211196744        0.7070983193157329    
     1.053645717490521        0.7006629213851723    
     1.062888223784297        0.6942882724719553    
     1.072130730078074        0.6879737527882116    
     1.081373236371850        0.6817187491191602    
     1.090615742665627        0.6755226548304966    
     1.099858248959403        0.6693848697657009    
     1.109100755253180        0.6633048001983201    
     1.118343261546956        0.6572818587699045    
     1.127585767840733        0.6513154644288259    
     1.136828274134509        0.6454050423696113    
     1.146070780428286        0.6395500239721750    
     1.155313286722062        0.6337498467411959    
     1.164555793015839        0.6280039542454745    
     1.173798299309615        0.6223117960574199    
     1.183040805603392        0.6166728276927054    
     1.192283311897168        0.6110865105500306    
     1.201525818190945        0.6055523118510863    
     1.210768324484721        0.6000697045807427    
     1.220010830778498        0.5946381674273914    
     1.229253337072274        0.5892571847235318    
     1.238495843366051        0.5839262463866272    
     1.247738349659827        0.5786448478602351    
     1.256980855953604        0.5734124900554197    
     1.266223362247380        0.5682286792924005    
     1.275465868541157        0.5630929272425518    
     1.284708374834933        0.5580047508707500    
     1.293950881128710        0.5529636723780270    
     1.303193387422486        0.5479692191445733    
     1.312435893716263        0.5430209236730681    
     1.321678400010039        0.5381183235324104    
     1.330920906303816        0.5332609613018564    
     1.340163412597592        0.5284483845154739    
     1.349405918891369        0.5236801456070111    
     1.358648425185145        0.5189558018552003    
     1.367890931478922        0.5142749153294450    
     1.377133437772698        0.5096370528359092    
     1.386375944066475        0.5050417858640471    
     1.395618450360251        0.5004886905335700    
     1.404860956654028        0.4959773475418251    
     1.414103462947804        0.4915073421116253    
     1.423345969241581        0.4870782639395075    
     1.432588475535357        0.4826897071444496    
     1.441830981829134        0.4783412702170463    
     1.451073488122910        0.4740325559691284    
     1.460315994416687        0.4697631714838342    
     1.469558500710463        0.4655327280661477    
     1.478801007004240        0.4613408411938978    
     1.488043513298016        0.4571871304692298    
     1.497286019591793        0.4530712195705543    
     1.506528525885569        0.4489927362049338    
     1.515771032179346        0.4449513120609415    
     1.525013538473122        0.4409465827620209    
     1.534256044766899        0.4369781878203151    
     1.543498551060675        0.4330457705909438    
     1.552741057354452        0.4291489782267640    
     1.561983563648228        0.4252874616336086    
     1.571226069942005        0.4214608754259997    
     1.580468576235781        0.4176688778833351    
     1.589711082529558        0.4139111309065497    
     1.598953588823334        0.4101872999752446    
     1.608196095117111        0.4064970541052887    
     1.617438601410887        0.4028400658068961    
     1.626681107704664        0.3992160110431763    
     1.635923613998440        0.3956245691891458    
     1.645166120292217        0.3920654229912074    
     1.654408626585993        0.3885382585271056    
     1.663651132879770        0.3850427651663488    
     1.672893639173546        0.3815786355310830    
     1.682136145467323        0.3781455654574303    
     1.691378651761099        0.3747432539572897    
     1.700621158054876        0.3713714031805954    
     1.709863664348652        0.3680297183780296    
     1.719106170642429        0.3647179078641917    
     1.728348676936205        0.3614356829812146    
     1.737591183229982        0.3581827580628271    
     1.746833689523758        0.3549588503988602    
     1.756076195817535        0.3517636802002043    
     1.765318702111311        0.3485969705642069    
     1.774561208405088        0.3454584474404975    
     1.783803714698864        0.3423478395972472    
     1.793046220992641        0.3392648785878665    
     1.802288727286417        0.3362092987181279    
     1.811531233580194        0.3331808370137145    
     1.820773739873970        0.3301792331881863    
     1.830016246167747        0.3272042296113621    
     1.839258752461523        0.3242555712781224    
     1.848501258755300        0.3213330057776215    
     1.857743765049076        0.3184362832629020    
     1.866986271342853        0.3155651564209166    
     1.876228777636629        0.3127193804429482    
     1.885471283930406        0.3098987129954254    
     1.894713790224182        0.3071029141911332    
     1.903956296517959        0.3043317465608085    
     1.913198802811735        0.3015849750251206    
     1.922441309105512        0.2988623668670345    
     1.931683815399288        0.2961636917045461    
     1.940926321693065        0.2934887214637936    
     1.950168827986841        0.2908372303525341    
     1.959411334280618        0.2882089948339835    
     1.968653840574394        0.2856037936010201    
     1.977896346868171        0.2830214075507392    
     1.987138853161947        0.2804616197593643    
     1.996381359455724        0.2779242154574998    
     2.005623865749500        0.2754089820057281    
     2.014866372043277        0.2729157088705479    
     2.024108878337053        0.2704441876006426    
     2.033351384630830        0.2679942118034812    
     2.042593890924606        0.2655655771222440    
     2.051836397218383        0.2631580812130691    
     2.061078903512159        0.2607715237226150    
     2.070321409805936        0.2584057062659375    
     2.079563916099712        0.2560604324046734    
     2.088806422393489        0.2537355076255266    
     2.098048928687265        0.2514307393190556    
     2.107291434981042        0.2491459367587550    
     2.116533941274818        0.2468809110804279    
     2.125776447568595        0.2446354752618441    
     2.135018953862371        0.2424094441026814    
     2.144261460156148        0.2402026342047423    
     2.153503966449924        0.2380148639524459    
     2.162746472743701        0.2358459534935896    
     2.171988979037477        0.2336957247203735    
     2.181231485331254        0.2315640012506865    
     2.190473991625030        0.2294506084096490    
     2.199716497918807        0.2273553732114083    
     2.208959004212583        0.2252781243411813    
     2.218201510506360        0.2232186921375408    
     2.227444016800136        0.2211769085749451    
     2.236686523093913        0.2191526072464968    
     2.245929029387689        0.2171456233469422    
     2.255171535681466        0.2151557936558914    
     2.264414041975242        0.2131829565212676    
     2.273656548269019        0.2112269518429731    
     2.282899054562795        0.2092876210567741    
     2.292141560856572        0.2073648071183952    
     2.301384067150348        0.2054583544878272    
     2.310626573444125        0.2035681091138354    
     2.319869079737901        0.2016939184186737    
     2.329111586031678        0.1998356312829930    
     2.338354092325454        0.1979930980309469    
     2.347596598619231        0.1961661704154837    
     2.356839104913007        0.1943547016038333    
     2.366081611206784        0.1925585461631699    
     2.375324117500560        0.1907775600464625    
     2.384566623794337        0.1890116005784974    
     2.393809130088113        0.1872605264420788    
     2.403051636381890        0.1855241976643950    
     2.412294142675666        0.1838024756035603    
     2.421536648969443        0.1820952229353142    
     2.430779155263219        0.1804023036398857    
     2.440021661556996        0.1787235829890166    
     2.449264167850772        0.1770589275331400    
     2.458506674144549        0.1754082050887119    
     2.467749180438325        0.1737712847256922    
     2.476991686732102        0.1721480367551745    
     2.486234193025878        0.1705383327171572    
     2.495476699319655        0.1689420453684599    
     2.504719205613431        0.1673590486707805    
     2.513961711907208        0.1657892177788839    
     2.523204218200984        0.1642324290289305    
     2.532446724494761        0.1626885599269337    
     2.541689230788537        0.1611574891373470    
     2.550931737082314        0.1596390964717784    
     2.560174243376090        0.1581332628778313    
     2.569416749669867        0.1566398704280677    
     2.578659255963643        0.1551588023090887    
     2.587901762257420        0.1536899428107388    
     2.597144268551196        0.1522331773154226    
     2.606386774844973        0.1507883922875364    
     2.615629281138749        0.1493554752630117    
     2.624871787432526        0.1479343148389728    
     2.634114293726302        0.1465248006634982    
     2.643356800020079        0.1451268234254892    
     2.652599306313855        0.1437402748446473    
     2.661841812607632        0.1423650476615515    
     2.671084318901408        0.1410010356278351    
     2.680326825195185        0.1396481334964660    
     2.689569331488961        0.1383062370121256    
     2.698811837782737        0.1369752429016789    
     2.708054344076514        0.1356550488647430    
     2.717296850370291        0.1343455535643512    
     2.726539356664067        0.1330466566177059    
     2.735781862957844        0.1317582585870201    
     2.745024369251620        0.1304802609704529    
     2.754266875545397        0.1292125661931321    
     2.763509381839173        0.1279550775982594    
     2.772751888132950        0.1267076994383030    
     2.781994394426726        0.1254703368662763    
     2.791236900720503        0.1242428959270978    
     2.800479407014279        0.1230252835490273    
     2.809721913308056        0.1218174075351915    
     2.818964419601832        0.1206191765551840    
     2.828206925895609        0.1194305001367430    
     2.837449432189385        0.1182512886575057    
     2.846691938483162        0.1170814533368423    
     2.855934444776938        0.1159209062277632    
     2.865176951070715        0.1147695602088982    
     2.874419457364491        0.1136273289765511    
     2.883661963658268        0.1124941270368271    
     2.892904469952044        0.1113698696978312    
     2.902146976245821        0.1102544730619298    
     2.911389482539597        0.1091478540180945    
     2.920631988833374        0.1080499302343067    
     2.929874495127150        0.1069606201500327    
     2.939117001420926        0.1058798429687609    
     2.948359507714703        0.1048075186506133    
     2.957602014008480        0.1037435679050182    
     2.966844520302256        0.1026879121834471    
     2.976087026596033        0.1016404736722149    
     2.985329532889809        0.1006011752853487    
     2.994572039183585        0.9956994065751622E-01
     3.003814545477362        0.9854669413701342E-01
     3.013057051771139        0.9753136077881744E-01
     3.022299558064915        0.9652386633770900E-01
     3.031542064358692        0.9552413726465107E-01
     3.040784570652468        0.9453210070424387E-01
     3.050027076946245        0.9354768447029430E-01
     3.059269583240021        0.9257081704871592E-01
     3.068512089533798        0.9160142759168360E-01
     3.077754595827574        0.9063944591109373E-01
     3.086997102121351        0.8968480247208990E-01
     3.096239608415127        0.8873742838664248E-01
     3.105482114708904        0.8779725540718279E-01
     3.114724621002680        0.8686421592028883E-01
     3.123967127296456        0.8593824294043415E-01
     3.133209633590233        0.8501927010378610E-01
     3.142452139884010        0.8410723166206058E-01
     3.151694646177786        0.8320206247642324E-01
     3.160937152471563        0.8230369801145308E-01
     3.170179658765339        0.8141207432915464E-01
     3.179422165059115        0.8052712808302293E-01
     3.188664671352892        0.7964879651215617E-01
     3.197907177646669        0.7877701743542477E-01
     3.207149683940445        0.7791172924569108E-01
     3.216392190234222        0.7705287090407853E-01
     3.225634696527998        0.7620038193428746E-01
     3.234877202821774        0.7535420241696474E-01
     3.244119709115551        0.7451427298412373E-01
     3.253362215409328        0.7368053481361178E-01
     3.262604721703104        0.7285292962362411E-01
     3.271847227996881        0.7203139966726604E-01
     3.281089734290657        0.7121588772716902E-01
     3.290332240584434        0.7040633711014924E-01
     3.299574746878210        0.6960269164191411E-01
     3.308817253171987        0.6880489566181172E-01
     3.318059759465763        0.6801289401763712E-01
     3.327302265759540        0.6722663206047583E-01
     3.336544772053316        0.6644605563959827E-01
     3.345787278347093        0.6567111109739286E-01
     3.355029784640869        0.6490174526435265E-01
     3.364272290934645        0.6413790545410339E-01
     3.373514797228422        0.6337953945847698E-01
     3.382757303522199        0.6262659554262441E-01
     3.391999809815975        0.6187902244017836E-01
     3.401242316109752        0.6113676934845929E-01
     3.410484822403528        0.6039978592372320E-01
     3.419727328697304        0.5966802227645220E-01
     3.428969834991081        0.5894142896668497E-01
     3.438212341284858        0.5821995699939757E-01
     3.447454847578634        0.5750355781992022E-01
     3.456697353872411        0.5679218330939970E-01
     3.465939860166187        0.5608578578029570E-01
     3.475182366459963        0.5538431797192826E-01
     3.484424872753740        0.5468773304606209E-01
     3.493667379047517        0.5399598458253164E-01
     3.502909885341293        0.5330902657490580E-01
     3.512152391635070        0.5262681342619117E-01
     3.521394897928846        0.5194929994458165E-01
     3.530637404222623        0.5127644133924214E-01
     3.539879910516399        0.5060819321613506E-01
     3.549122416810175        0.4994451157387859E-01
     3.558364923103952        0.4928535279965321E-01
     3.567607429397729        0.4863067366514286E-01
     3.576849935691505        0.4798043132251371E-01
     3.586092441985282        0.4733458330043165E-01
     3.595334948279058        0.4669308750011406E-01
     3.604577454572834        0.4605590219142575E-01
     3.613819960866611        0.4542298600900830E-01
     3.623062467160388        0.4479429794844658E-01
     3.632304973454164        0.4416979736246942E-01
     3.641547479747941        0.4354944395719037E-01
     3.650789986041717        0.4293319778838417E-01
     3.660032492335493        0.4232101925779792E-01
     3.669274998629270        0.4171286910949985E-01
     3.678517504923047        0.4110870842625612E-01
     3.687760011216823        0.4050849862595312E-01
     3.697002517510600        0.3991220145804852E-01
     3.706245023804376        0.3931977900005832E-01
     3.715487530098152        0.3873119365407859E-01
     3.724730036391929        0.3814640814333607E-01
     3.733972542685706        0.3756538550878165E-01
     3.743215048979482        0.3698808910571141E-01
     3.752457555273259        0.3641448260042227E-01
     3.761700061567035        0.3584452996690049E-01
     3.770942567860812        0.3527819548353978E-01
     3.780185074154588        0.3471544372989867E-01
     3.789427580448364        0.3415623958348597E-01
     3.798670086742141        0.3360054821657789E-01
     3.807912593035918        0.3304833509306730E-01
     3.817155099329694        0.3249956596534319E-01
     3.826397605623471        0.3195420687120519E-01
     3.835640111917247        0.3141222413080599E-01
     3.844882618211023        0.3087358434362538E-01
     3.854125124504800        0.3033825438547266E-01
     3.863367630798577        0.2980620140552068E-01
     3.872610137092353        0.2927739282337165E-01
     3.881852643386130        0.2875179632615125E-01
     3.891095149679906        0.2822937986563107E-01
     3.900337655973682        0.2771011165538006E-01
     3.909580162267459        0.2719396016794580E-01
     3.918822668561236        0.2668089413206581E-01
     3.928065174855012        0.2617088252990540E-01
     3.937307681148789        0.2566389459432435E-01
     3.946550187442565        0.2515989980617041E-01
     3.955792693736341        0.2465886789160028E-01
     3.965035200030118        0.2416076881943124E-01
     3.974277706323895        0.2366557279851735E-01
     3.983520212617671        0.2317325027515268E-01
     3.992762718911448        0.2268377193050131E-01
     4.002005225205224        0.2219710867805246E-01
     4.011247731499001        0.2171323166110557E-01
     4.020490237792777        0.2123211225027839E-01
     4.029732744086553        0.2075372204104101E-01
     4.038975250380330        0.2027803285127692E-01
     4.048217756674107        0.1980501671886479E-01
     4.057460262967883        0.1933464589929203E-01
     4.066702769261660        0.1886689286328836E-01
     4.075945275555436        0.1840173029448527E-01
     4.085187781849212        0.1793913108710044E-01
     4.094430288142989        0.1747906834364198E-01
     4.103672794436766        0.1702151537264358E-01
     4.112915300730542        0.1656644568641788E-01
     4.122157807024318        0.1611383299883502E-01
     4.131400313318095        0.1566365122312481E-01
     4.140642819611871        0.1521587446969891E-01
     4.149885325905648        0.1477047704399850E-01
     4.159127832199425        0.1432743344436466E-01
     4.168370338493201        0.1388671835992869E-01
     4.177612844786977        0.1344830666852696E-01
     4.186855351080754        0.1301217343689689E-01
     4.196097857374530        0.1257829404790565E-01
     4.205340363668307        0.1214664577255846E-01
     4.214582869962084        0.1171721469298584E-01
     4.223825376255860        0.1129001085236953E-01
     4.233067882549636        0.1086508871308693E-01
     4.242310388843413        0.1044256659523820E-01
     4.251552895137189        0.1002264014493872E-01
     4.260795401430966        0.9605587982558271E-02
     4.270037907724743        0.9191770059463429E-02
     4.279280414018519        0.8781620385219686E-02
     4.288522920312295        0.8375636023049424E-02
     4.297765426606072        0.7974364031973573E-02
     4.307007932899849        0.7578387658426068E-02
     4.316250439193625        0.7188312702507691E-02
     4.325492945487402        0.6804754666422103E-02
     4.334735451781178        0.6428327049219156E-02
     4.343977958074954        0.6059630976316313E-02
     4.353220464368731        0.5699246231266972E-02
     4.362462970662508        0.5347723677415596E-02
     4.371705476956284        0.5005579006965209E-02
     4.380947983250061        0.4673287725635506E-02
     4.390190489543837        0.4351281265853790E-02
     4.399432995837613        0.4039944115543614E-02
     4.408675502131390        0.3739611849692086E-02
     4.417918008425167        0.3450569955665858E-02
     4.427160514718943        0.3173053349121952E-02
     4.436403021012720        0.2907246484244482E-02
     4.445645527306496        0.2653283969180581E-02
     4.454888033600272        0.2411251604435003E-02
     4.464130539894049        0.2181187768188777E-02
     4.473373046187826        0.1963085077665051E-02
     4.482615552481602        0.1756892259323384E-02
     4.491858058775379        0.1562516162195456E-02
     4.501100565069155        0.1379823847055427E-02
     4.510343071362931        0.1208644677582025E-02
     4.519585577656708        0.1048772324983834E-02
     4.528828083950485        0.8999665685679764E-03
     4.538070590244261        0.7619547191152639E-03
     4.547313096538037        0.6344323835825140E-03
     4.556555602831814        0.5170630693980544E-03
     4.565798109125590        0.4094756483685999E-03
     4.575040615419367        0.3112575628240667E-03
     4.584283121713144        0.2219385921454334E-03
     4.593525628006920        0.1409501279768907E-03
     4.602768134300696        0.6750275985914889E-04
     4.612010640594473         0.000000000000000    
  0  1  2  0  0.000000   #orbital l, n, z, is_polarized, population
 500    0.6513696500821587E-02     3.250334553909972     # npts, delta, cutoff
     0.000000000000000         2.313049248924068    
    0.6513696500821587E-02     2.312891862680801    
    0.1302739300164317E-01     2.312433159825408    
    0.1954108950246476E-01     2.311669087089071    
    0.2605478600328635E-01     2.310600282672397    
    0.3256848250410793E-01     2.309227639537563    
    0.3908217900492952E-01     2.307552301717117    
    0.4559587550575111E-01     2.305575660894290    
    0.5210957200657269E-01     2.303299352418760    
    0.5862326850739428E-01     2.300725250684577    
    0.6513696500821586E-01     2.297855463876838    
    0.7165066150903746E-01     2.294692328110697    
    0.7816435800985905E-01     2.291238400993192    
    0.8467805451068063E-01     2.287496454642292    
    0.9119175101150222E-01     2.283469468200920    
    0.9770544751232380E-01     2.279160619886155    
    0.1042191440131454         2.274573278616438    
    0.1107328405139670         2.269710995261253    
    0.1172465370147886         2.264577493559841    
    0.1237602335156101         2.259176660756481    
    0.1302739300164317         2.253512538001177    
    0.1367876265172533         2.247589310565307    
    0.1433013230180749         2.241411297921903    
    0.1498150195188965         2.234982943740710    
    0.1563287160197181         2.228308805847453    
    0.1628424125205397         2.221393546196554    
    0.1693561090213613         2.214241920905279    
    0.1758698055221828         2.206858770396301    
    0.1823835020230044         2.199249009694004    