Executable      : siesta
Version         : 5.2.1
Architecture    : x86_64
Compiler version: GNU-13.3.0
Compiler flags  : -march=nocona -mtune=haswell -ftree-vectorize -fPIC -fstack-protector-strong -fno-plt -O2 -ffunction-sections -pipe -isystem <prefix>/include -I<prefix>/_build_env/include -fdebug-prefix-map=<prefix>/work=/usr/local/src/conda/siesta-5.2.1 -fdebug-prefix-map=<prefix>=/usr/local/src/conda-prefix -I<prefix>/lib -fallow-argument-mismatch -O3
Parallelisations: none
NetCDF support
NetCDF-4 support
Lua support
DFT-D3 support

Runtime information:
* Directory : /home/samba/homes/convidat/Desktop/run
* Running in serial mode.
>> Start of run:   3-JUN-2025  14:48:07

                           *********************** 
                           *  WELCOME TO SIESTA  * 
                           *********************** 

 NOTE: Siesta V5 introduces some new defaults for basis-set generation
 NOTE: which might lead to slightly different numerical results.
 NOTE: Please see the manual for full details and compatibility measures.


reinit: Reading from file relaxation.fdf

reinit: -----------------------------------------------------------------------
reinit: System Name: 
reinit: -----------------------------------------------------------------------
reinit: System Label: relaxation
reinit: -----------------------------------------------------------------------

initatom: Reading input for the pseudopotentials and atomic orbitals ----------
Species number:   1 Atomic number:   14 Label: Si
Species number:   2 Atomic number:    1 Label: H

Ground state valence configuration (from tables):   3s02  3p02  3d00  4f00
Ground state valence configuration (from tables):   1s01  2p00  3d00  4f00

---- Processing specs for species: Si
Reading pseudopotential information in PSML from:
  Si.psml
PSML file version: 1.1
Using libxc ids:  101 130
GGA--PBE XC_GGA_X_PBE--XC_GGA_C_PBE pb
PSML uuid: 78f1be70-be41-11e7-6330-179677bb7285

---- Processing specs for species: H
Reading pseudopotential information in PSML from:
  H.psml
PSML file version: 1.1
Using libxc ids:  101 130
GGA--PBE XC_GGA_X_PBE--XC_GGA_C_PBE pb
PSML uuid: f95fa9b0-be40-11e7-634a-9594ffff953f

---- Pseudopotential check for Si

Pseudized shells:
3s( 2.00) rc: 1.60
3p( 2.00) rc: 1.72
3d( 0.00) rc: 1.92
Valence configuration for ps generation: 3s:3p: Total charge:   4.000000

---- Pseudopotential check for H 

Pseudized shells:
1s( 1.00) rc: 1.01
2p( 0.00) rc: 0.71
Valence configuration for ps generation: 1s: Total charge:   1.000000
For Si, standard SIESTA heuristics set lmxkb to 3
 (one more than the basis l, including polarization orbitals).
Use PS.lmax or PS.KBprojectors blocks to override.
For H, standard SIESTA heuristics set lmxkb to 2
 (one more than the basis l, including polarization orbitals).
Use PS.lmax or PS.KBprojectors blocks to override.
Si pseudopotential only contains V_ls up to l=2 -- lmxkb reset.
H pseudopotential only contains V_ls up to l=1 -- lmxkb reset.

<basis_specs>
===============================================================================
Si                   Z=  14    Mass=  28.090        Charge= 0.17977+309
Lmxo=2 Lmxkb= 2    BasisType=split      Semic=F
L=0  Nsemic=0  Cnfigmx=3
          i=1  nzeta=2  polorb=0  (3s)
            splnorm:   0.15000    
               vcte:    40.000    
               rinn:  -0.90000    
               qcoe:    0.0000    
               qyuk:    0.0000    
               qwid:   0.10000E-01
                rcs:    0.0000      0.0000    
            lambdas:    1.0000      1.0000    
L=1  Nsemic=0  Cnfigmx=3
          i=1  nzeta=2  polorb=1  (3p)  (to be polarized perturbatively)
            splnorm:   0.15000    
               vcte:    40.000    
               rinn:  -0.90000    
               qcoe:    0.0000    
               qyuk:    0.0000    
               qwid:   0.10000E-01
                rcs:    0.0000      0.0000    
            lambdas:    1.0000      1.0000    
L=2  Nsemic=0  Cnfigmx=3
          i=1  nzeta=0  polorb=0  (3d)  (perturbative polarization orbital) (from 3p)
-------------------------------------------------------------------------------
L=0  Nkbl=1  erefs: 0.17977+309
L=1  Nkbl=1  erefs: 0.17977+309
L=2  Nkbl=1  erefs: 0.17977+309
===============================================================================
</basis_specs>

Using PAO.SplitTailNorm
atom: Called for Si                    (Z =  14)
Maximum radius (at nrval) set to   50.00000 8518

read_vps: Pseudopotential generation method:
read_vps: ONCVPSP-3.Hamann's oncvpsp                        
Valence charge in pseudo generation:    4.00000

read_vps: Pseudopotential includes a core correction:
read_vps: Pseudo-core for xc-correction

xc_check: Exchange-correlation functional:
xc_check: GGA Perdew, Burke & Ernzerhof 1996
Got Vlocal (oncv-fit) from psml data
Choosing vlocal chloc cutoff:  4.644478
qtot up to nchloc:    4.00055554
atom: Maximum radius for chlocal:    4.64448
atom: Maximum radius for r*vlocal+2*Zval:    4.64448
Reading KB projs from Si psml data
Using scalar-relativistic projectors in PSML file

PSML: Kleinman-Bylander projectors: 
   l= 0   rc=  1.623671   Ekb= 10.337930
   l= 0   rc=  1.623671   Ekb=  1.659765
   l= 1   rc=  1.743879   Ekb=  5.142565
   l= 1   rc=  1.743879   Ekb=  1.156614
   l= 2   rc=  1.941952   Ekb= -4.854621
   l= 2   rc=  1.941952   Ekb= -0.976194

PSML: Total number of  Kleinman-Bylander projectors:  18
atom: -------------------------------------------------------------------------

atom: SANKEY-TYPE ORBITALS:
atom: Selected multiple-zeta basis: split     

SPLIT: Orbitals with angular momentum L= 0

SPLIT: Basis orbitals for state 3s

SPLIT: PAO cut-off radius determined from an
SPLIT: energy shift=  0.022050 Ry
Split based on tail norm

   izeta = 1
                 lambda =    1.000000
                     rc =    4.897820
                 energy =   -0.769877
                kinetic =    0.629341
    potential(screened) =   -1.399219
       potential(ionic) =   -3.834541

   izeta = 2
                 rmatch =    3.647683
              splitnorm =    0.150000
                 energy =   -0.333761
                kinetic =    1.440104
    potential(screened) =   -1.773865
       potential(ionic) =   -4.344738

SPLIT: Orbitals with angular momentum L= 1

SPLIT: Basis orbitals for state 3p

SPLIT: PAO cut-off radius determined from an
SPLIT: energy shift=  0.022050 Ry
Split based on tail norm

   izeta = 1
                 lambda =    1.000000
                     rc =    6.081107
                 energy =   -0.275211
                kinetic =    0.911412
    potential(screened) =   -1.186622
       potential(ionic) =   -3.441905

   izeta = 2
                 rmatch =    4.575182
              splitnorm =    0.150000
                 energy =   -0.129381
                kinetic =    1.409591
    potential(screened) =   -1.538972
       potential(ionic) =   -3.987345

POLgen: Perturbative polarization orbital with L=  2

POLgen: Polarization orbital for state 3p
Split based on tail norm

   izeta = 1
                     rc =    6.081107
                 energy =    0.393578
                kinetic =    1.684997
    potential(screened) =   -1.291419
       potential(ionic) =   -3.466595
atom: Total number of Sankey-type orbitals: 13

atm_pop: Valence configuration (for local Pseudopot. screening):
 3s( 2.00)                                                            
 3p( 2.00)                                                            
 3d( 0.00)                                                            
Vna: chval, zval:    4.00000   4.00000

Vna:  Cut-off radius for the neutral-atom potential:   6.081107
comcore: Pseudo-core radius Rcore=  2.875880

atom: _________________________________________________________________________

<basis_specs>
===============================================================================
H                    Z=   1    Mass=  1.0080        Charge= 0.17977+309
Lmxo=1 Lmxkb= 1    BasisType=split      Semic=F
L=0  Nsemic=0  Cnfigmx=1
          i=1  nzeta=2  polorb=1  (1s)  (to be polarized perturbatively)
            splnorm:   0.15000    
               vcte:    40.000    
               rinn:  -0.90000    
               qcoe:    0.0000    
               qyuk:    0.0000    
               qwid:   0.10000E-01
                rcs:    0.0000      0.0000    
            lambdas:    1.0000      1.0000    
L=1  Nsemic=0  Cnfigmx=2
          i=1  nzeta=0  polorb=0  (2p)  (perturbative polarization orbital) (from 1s)
-------------------------------------------------------------------------------
L=0  Nkbl=1  erefs: 0.17977+309
L=1  Nkbl=1  erefs: 0.17977+309
===============================================================================
</basis_specs>

Using PAO.SplitTailNorm
atom: Called for H                     (Z =   1)
Maximum radius (at nrval) set to   50.00000 8518

read_vps: Pseudopotential generation method:
read_vps: ONCVPSP-3.Hamann's oncvpsp                        
Valence charge in pseudo generation:    1.00000

xc_check: Exchange-correlation functional:
xc_check: GGA Perdew, Burke & Ernzerhof 1996
Got Vlocal (oncv-fit) from psml data
Choosing vlocal chloc cutoff:  1.926399
qtot up to nchloc:    0.99999831
atom: Maximum radius for chlocal:    1.92640
atom: Maximum radius for r*vlocal+2*Zval:    1.92640
Reading KB projs from H psml data
Using scalar-relativistic projectors in PSML file

PSML: Kleinman-Bylander projectors: 
   l= 0   rc=  1.022342   Ekb= -3.402247
   l= 0   rc=  1.022342   Ekb= -1.068968
   l= 1   rc=  0.714575   Ekb= -1.006642

PSML: Total number of  Kleinman-Bylander projectors:   5
atom: -------------------------------------------------------------------------

atom: SANKEY-TYPE ORBITALS:
atom: Selected multiple-zeta basis: split     

SPLIT: Orbitals with angular momentum L= 0

SPLIT: Basis orbitals for state 1s

SPLIT: PAO cut-off radius determined from an
SPLIT: energy shift=  0.022050 Ry
Split based on tail norm

   izeta = 1
                 lambda =    1.000000
                     rc =    4.612011
                 energy =   -0.453186
                kinetic =    1.021401
    potential(screened) =   -1.474588
       potential(ionic) =   -2.005546

   izeta = 2
                 rmatch =    3.250335
              splitnorm =    0.150000
                 energy =   -0.230614
                kinetic =    1.936796
    potential(screened) =   -2.167410
       potential(ionic) =   -2.722623

POLgen: Perturbative polarization orbital with L=  1

POLgen: Polarization orbital for state 1s
Split based on tail norm

   izeta = 1
                     rc =    4.612011
                 energy =    0.818341
                kinetic =    1.531928
    potential(screened) =   -0.713588
       potential(ionic) =   -1.217279
atom: Total number of Sankey-type orbitals:  5

atm_pop: Valence configuration (for local Pseudopot. screening):
 1s( 1.00)                                                            
 2p( 0.00)                                                            
Vna: chval, zval:    1.00000   1.00000

Vna:  Cut-off radius for the neutral-atom potential:   4.612011

atom: _________________________________________________________________________

prinput: Basis input 

PAO.BasisType split     

%block ChemicalSpeciesLabel
    1   14 Si                      # Species index, atomic number, species label
    2    1 H                       # Species index, atomic number, species label
%endblock ChemicalSpeciesLabel

%block PAO.Basis                 # Define Basis set
# WARNING: This information might be incomplete!
Si                    2                    # Species label, number of l-shells
 n=3   0   2                         # n, l, Nzeta 
   4.898      3.648   
   1.000      1.000   
 n=3   1   2 P   1                   # n, l, Nzeta, Polarization, NzetaPol
   6.081      4.575   
   1.000      1.000   
H                     1                    # Species label, number of l-shells
 n=1   0   2 P   1                   # n, l, Nzeta, Polarization, NzetaPol
   4.612      3.250   
   1.000      1.000   
%endblock PAO.Basis

prinput: ----------------------------------------------------------------------

Dumping basis to NetCDF file Si.ion.nc
Dumping basis to NetCDF file H.ion.nc
coor:   Atomic-coordinates input format  =     Cartesian coordinates
coor:                                          (in Angstroms)

siesta: Atomic coordinates (Bohr) and species
siesta:      0.00000   0.00000  -0.42235  1        1
siesta:      3.64245   2.10297   0.42235  1        2
siesta:      0.00000   0.00000  -3.18135  2        3
siesta:      3.64245   2.10297   3.18135  2        4
siesta:      7.28489   0.00000  -0.42235  1        5
siesta:     10.92734   2.10297   0.42235  1        6
siesta:      7.28489   0.00000  -3.18135  2        7
siesta:     10.92734   2.10297   3.18135  2        8
siesta:     14.56979   0.00000  -0.42235  1        9
siesta:     18.21224   2.10297   0.42235  1       10
siesta:     14.56979   0.00000  -3.18135  2       11
siesta:     18.21224   2.10297   3.18135  2       12
siesta:     21.85468   0.00000  -0.42235  1       13
siesta:     25.49713   2.10297   0.42235  1       14
siesta:     21.85468   0.00000  -3.18135  2       15
siesta:     25.49713   2.10297   3.18135  2       16
siesta:     29.13958   0.00000  -0.42235  1       17
siesta:     32.78202   2.10297   0.42235  1       18
siesta:     29.13958   0.00000  -3.18135  2       19
siesta:     32.78202   2.10297   3.18135  2       20
siesta:     36.42447   0.00000  -0.42235  1       21
siesta:     40.06692   2.10297   0.42235  1       22
siesta:     36.42447   0.00000  -3.18135  2       23
siesta:     40.06692   2.10297   3.18135  2       24
siesta:     -3.64245   6.30890  -0.42235  1       25
siesta:      0.00000   8.41187   0.42235  1       26
siesta:     -3.64245   6.30890  -3.18135  2       27
siesta:      0.00000   8.41187   3.18135  2       28
siesta:      3.64245   6.30890  -0.42235  1       29
siesta:      7.28489   8.41187   0.42235  1       30
siesta:      3.64245   6.30890  -3.18135  2       31
siesta:      7.28489   8.41187   3.18135  2       32
siesta:     10.92734   6.30890  -0.42235  1       33
siesta:     14.56979   8.41187   0.42235  1       34
siesta:     10.92734   6.30890  -3.18135  2       35
siesta:     14.56979   8.41187   3.18135  2       36
siesta:     18.21224   6.30890  -0.42235  1       37
siesta:     21.85468   8.41187   0.42235  1       38
siesta:     18.21224   6.30890  -3.18135  2       39
siesta:     21.85468   8.41187   3.18135  2       40
siesta:     25.49713   6.30890  -0.42235  1       41
siesta:     29.13958   8.41187   0.42235  1       42
siesta:     25.49713   6.30890  -3.18135  2       43
siesta:     29.13958   8.41187   3.18135  2       44
siesta:     32.78202   6.30890  -0.42235  1       45
siesta:     36.42447   8.41187   0.42235  1       46
siesta:     32.78202   6.30890  -3.18135  2       47
siesta:     36.42447   8.41187   3.18135  2       48
siesta:     -7.28489  12.61781  -0.42235  1       49
siesta:     -3.64245  14.72077   0.42235  1       50
siesta:     -7.28489  12.61781  -3.18135  2       51
siesta:     -3.64245  14.72077   3.18135  2       52
siesta:      0.00000  12.61781  -0.42235  1       53
siesta:      3.64245  14.72077   0.42235  1       54
siesta:      0.00000  12.61781  -3.18135  2       55
siesta:      3.64245  14.72077   3.18135  2       56
siesta:      7.28489  12.61781  -0.42235  1       57
siesta:     10.92734  14.72077   0.42235  1       58
siesta:      7.28489  12.61781  -3.18135  2       59
siesta:     10.92734  14.72077   3.18135  2       60
siesta:     14.56979  12.61781  -0.42235  1       61
siesta:     18.21224  14.72077   0.42235  1       62
siesta:     14.56979  12.61781  -3.18135  2       63
siesta:     18.21224  14.72077   3.18135  2       64
siesta:     21.85468  12.61781  -0.42235  1       65
siesta:     25.49713  14.72077   0.42235  1       66
siesta:     21.85468  12.61781  -3.18135  2       67
siesta:     25.49713  14.72077   3.18135  2       68
siesta:     29.13958  12.61781  -0.42235  1       69
siesta:     32.78202  14.72077   0.42235  1       70
siesta:     29.13958  12.61781  -3.18135  2       71
siesta:     32.78202  14.72077   3.18135  2       72
siesta:    -10.92734  18.92671  -0.42235  1       73
siesta:     -7.28489  21.02968   0.42235  1       74
siesta:    -10.92734  18.92671  -3.18135  2       75
siesta:     -7.28489  21.02968   3.18135  2       76
siesta:     -3.64245  18.92671  -0.42235  1       77
siesta:      0.00000  21.02968   0.42235  1       78
siesta:     -3.64245  18.92671  -3.18135  2       79
siesta:      0.00000  21.02968   3.18135  2       80
siesta:      3.64245  18.92671  -0.42235  1       81
siesta:      7.28489  21.02968   0.42235  1       82
siesta:      3.64245  18.92671  -3.18135  2       83
siesta:      7.28489  21.02968   3.18135  2       84
siesta:     10.92734  18.92671  -0.42235  1       85
siesta:     14.56979  21.02968   0.42235  1       86
siesta:     10.92734  18.92671  -3.18135  2       87
siesta:     14.56979  21.02968   3.18135  2       88
siesta:     18.21224  18.92671  -0.42235  1       89
siesta:     21.85468  21.02968   0.42235  1       90
siesta:     18.21224  18.92671  -3.18135  2       91
siesta:     21.85468  21.02968   3.18135  2       92
siesta:     25.49713  18.92671  -0.42235  1       93
siesta:     29.13958  21.02968   0.42235  1       94
siesta:     25.49713  18.92671  -3.18135  2       95
siesta:     29.13958  21.02968   3.18135  2       96
siesta:    -14.56979  25.23561  -0.42235  1       97
siesta:    -10.92734  27.33858   0.42235  1       98
siesta:    -14.56979  25.23561  -3.18135  2       99
siesta:    -10.92734  27.33858   3.18135  2      100
siesta:     -7.28489  25.23561  -0.42235  1      101
siesta:     -3.64245  27.33858   0.42235  1      102
siesta:     -7.28489  25.23561  -3.18135  2      103
siesta:     -3.64245  27.33858   3.18135  2      104
siesta:      0.00000  25.23561  -0.42235  1      105
siesta:      3.64245  27.33858   0.42235  1      106
siesta:      0.00000  25.23561  -3.18135  2      107
siesta:      3.64245  27.33858   3.18135  2      108
siesta:      7.28489  25.23561  -0.42235  1      109
siesta:     10.92734  27.33858   0.42235  1      110
siesta:      7.28489  25.23561  -3.18135  2      111
siesta:     10.92734  27.33858   3.18135  2      112
siesta:     14.56979  25.23561  -0.42235  1      113
siesta:     18.21224  27.33858   0.42235  1      114
siesta:     14.56979  25.23561  -3.18135  2      115
siesta:     18.21224  27.33858   3.18135  2      116
siesta:     21.85468  25.23561  -0.42235  1      117
siesta:     25.49713  27.33858   0.42235  1      118
siesta:     21.85468  25.23561  -3.18135  2      119
siesta:     25.49713  27.33858   3.18135  2      120
siesta:    -18.21224  31.54452  -0.42235  1      121
siesta:    -14.56979  33.64749   0.42235  1      122
siesta:    -18.21224  31.54452  -3.18135  2      123
siesta:    -14.56979  33.64749   3.18135  2      124
siesta:    -10.92734  31.54452  -0.42235  1      125
siesta:     -7.28489  33.64749   0.42235  1      126
siesta:    -10.92734  31.54452  -3.18135  2      127
siesta:     -7.28489  33.64749   3.18135  2      128
siesta:     -3.64245  31.54452  -0.42235  1      129
siesta:      0.00000  33.64749   0.42235  1      130
siesta:     -3.64245  31.54452  -3.18135  2      131
siesta:      0.00000  33.64749   3.18135  2      132
siesta:      3.64245  31.54452  -0.42235  1      133
siesta:      7.28489  33.64749   0.42235  1      134
siesta:      3.64245  31.54452  -3.18135  2      135
siesta:      7.28489  33.64749   3.18135  2      136
siesta:     10.92734  31.54452  -0.42235  1      137
siesta:     14.56979  33.64749   0.42235  1      138
siesta:     10.92734  31.54452  -3.18135  2      139
siesta:     14.56979  33.64749   3.18135  2      140
siesta:     18.21224  31.54452  -0.42235  1      141
siesta:     21.85468  33.64749   0.42235  1      142
siesta:     18.21224  31.54452  -3.18135  2      143
siesta:     21.85468  33.64749   3.18135  2      144

siesta: System type = slab      

initatomlists: Number of atoms, orbitals, and projectors:    144  1296  1656

coxmol: Writing XMOL coordinates into file relaxation.xyz                                                                                                                                                                                                                      

siesta: ******************** Simulation parameters ****************************
siesta:
siesta: The following are some of the parameters of the simulation.
siesta: A complete list of the parameters used, including default values,
siesta: can be found in file out.fdf
siesta:
redata: Spin configuration                          = none
redata: Number of spin components                   = 1
redata: Time-Reversal Symmetry                      = T
redata: Spin spiral                                 = F
redata: Long output                                 =   F
redata: Number of Atomic Species                    =        2
redata: Charge density info will appear in .RHO file
redata: Write Mulliken charges (when)               = none
redata: Write Mulliken Pop.                         = NO
redata: Write Hirshfeld charges (when)              = none
redata: Write Voronoi charges (when)                = none
redata: Write spin charge (when)                    = none
redata: Matel table size (NRTAB)                    =     1024
redata: Mesh Cutoff                                 =   300.0000 Ry
redata: Net charge of the system                    =     0.0000 |e|
redata: Min. number of SCF Iter                     =        0
redata: Max. number of SCF Iter                     =     1000
redata: SCF convergence failure will abort job
redata: SCF mix quantity                            = Hamiltonian
redata: Mix DM or H after convergence               =   F
redata: Recompute H after scf cycle                 =   F
redata: Mix DM in first SCF step                    =   T
redata: Write Pulay info on disk                    =   F
redata: New DM Occupancy tolerance                  = 0.000000000001
redata: No kicks to SCF
redata: DM Mixing Weight for Kicks                  =     0.5000
redata: Require Harris convergence for SCF          =   F
redata: Harris energy tolerance for SCF             =     0.000100 eV
redata: Require DM convergence for SCF              =   T
redata: DM tolerance for SCF                        =     0.000100
redata: Require EDM convergence for SCF             =   F
redata: EDM tolerance for SCF                       =     0.001000 eV
redata: Require H convergence for SCF               =   T
redata: Hamiltonian tolerance for SCF               =     0.001000 eV
redata: Require (free) Energy convergence for SCF   =   F
redata: (free) Energy tolerance for SCF             =     0.000100 eV
redata: Using DFT-D3 dispersion                     =   F
redata: Using Saved Data (generic)                  =   F
redata: Use continuation files for DM               =   T
redata: Neglect nonoverlap interactions             =   F
redata: Method of Calculation                       = Diagonalization
redata: Electronic Temperature                      =   299.9863 K
redata: Fix the spin of the system                  =   F
redata: Max. number of TDED Iter                    =        1
redata: Number of TDED substeps                     =        3
redata: Dynamics option                             = CG coord. optimization
redata: Variable cell                               =   T
redata: Use continuation files for CG               =   F
redata: Max atomic displ per move                   =     0.1058 Ang
redata: Maximum number of optimization moves        =      100
redata: Force tolerance                             =     0.0050 eV/Ang
redata: Stress tolerance                            =     0.0100 GPa
mix.SCF: Pulay mixing                            = Pulay
mix.SCF:    Variant                              = stable
mix.SCF:    History steps                        = 2
mix.SCF:    Linear mixing weight                 =     0.250000
mix.SCF:    Mixing weight                        =     0.250000
mix.SCF:    SVD condition                        = 0.1000E-07
redata: Save all siesta data in one NC              =   F
redata: ***********************************************************************

%block SCF.Mixers
  Pulay
%endblock SCF.Mixers

%block SCF.Mixer.Pulay
  # Mixing method
  method pulay
  variant stable

  # Mixing options
  weight 0.2500
  weight.linear 0.2500
  history 2
%endblock SCF.Mixer.Pulay

DM_history_depth set to one: no extrapolation allowed by default for geometry relaxation
Size of DM history Fstack: 1
Total number of electrons:   360.000000
Total ionic charge:   360.000000
 Kpoints in:           84 . Kpoints trimmed:           74

siesta: k-grid: Number of k-points = 74
siesta: k-points from Monkhorst-Pack grid
siesta: k-cutoff (effective) =    30.000 Ang
siesta: k-point supercell and displacements
siesta: k-grid:     7     0     0      0.000
siesta: k-grid:     0     7     0      0.000
siesta: k-grid:     0     0     3      0.000

diag: Algorithm                                     = D&C
diag: Used triangular part                          = Lower
diag: Absolute tolerance                            =  0.100E-15
diag: Orthogonalization factor                      =  0.100E-05
diag: Memory factor                                 =  1.0000

superc: Internal auxiliary supercell:     3 x     3 x     1  =       9
superc: Number of atoms, orbitals, and projectors:   1296  11664  14904


ts: **************************************************************
ts: Save H and S matrices                           =    F
ts: Save DM and EDM matrices                        =    F
ts: Only save the overlap matrix S                  =    F
ts: **************************************************************

************************ Begin: TS CHECKS AND WARNINGS ************************
************************ End: TS CHECKS AND WARNINGS **************************


                     ====================================
                        Begin CG opt. move =      0
                     ====================================

superc: Internal auxiliary supercell:     3 x     3 x     1  =       9
superc: Number of atoms, orbitals, and projectors:   1296  11664  14904

outcell: Unit cell vectors (Ang):
       23.130000    0.000000    0.000000
      -11.565000   20.031168    0.000000
        0.000000    0.000000   20.000000

outcell: Cell vector modules (Ang)   :   23.130000   23.130000   20.000000
outcell: Cell angles (23,13,12) (deg):     90.0000     90.0000    120.0000
outcell: Cell volume (Ang**3)        :   9266.4181
<dSpData1D:S at geom step 0
  <sparsity:sparsity for geom step 0
    nrows_g=1296 nrows=1296 sparsity=.2596 nnzs=436104, refcount: 7>
  <dData1D:(new from dSpData1D) n=436104, refcount: 1>
refcount: 1>
new_DM -- step:     1
Initializing Density Matrix...

Attempting to read DM from file... Failed...
DM filled with atomic data:
<dSpData2D:DM initialized from atoms
  <sparsity:sparsity for geom step 0
    nrows_g=1296 nrows=1296 sparsity=.2596 nnzs=436104, refcount: 8>
  <dData2D:DM n=436104 m=1, refcount: 1>
refcount: 1>
No. of atoms with KB's overlaping orbs in proc 0. Max # of overlaps:     220     117

InitMesh: MESH = 216 x 216 x 216 = 10077696
InitMesh: Mesh cutoff (required, used) =   300.000   321.364 Ry
New grid distribution [1]: sub = 2

stepf: Fermi-Dirac step function

siesta: Program's energy decomposition (eV):
siesta: Ebs     =     -3532.074965
siesta: Eions   =     16191.100025
siesta: Ena     =      5298.940336
siesta: Ekin    =      4317.420419
siesta: Enl     =       985.088007
siesta: Eso     =         0.000000
siesta: Edftu   =         0.000000
siesta: DEna    =       -54.816457
siesta: DUscf   =        60.932460
siesta: DUext   =         0.000000
siesta: Ex      =     -3387.399056
siesta: Ec      =      -401.976178
siesta: Exc     =     -3789.375234
siesta: EbV     =         0.000000
siesta: eta*DQ  =         0.000000
siesta: Emadel  =         0.000000
siesta: Emeta   =         0.000000
siesta: Emolmec =         0.000000
siesta: Ekinion =         0.000000
siesta: Eharris =     -9529.036310
siesta: Etot    =     -9372.910495
siesta: FreeEng =     -9372.910495

        iscf     Eharris(eV)        E_KS(eV)     FreeEng(eV)     dDmax    Ef(eV) dHmax(eV)
   scf:    1    -9529.036310    -9372.910495    -9372.910495  1.676031 -4.151390  2.619548
timer: Routine,Calls,Time,% = IterSCF        1     789.488  98.26
   scf:    2    -9388.849660    -9381.414837    -9381.414837  0.019432 -4.296092  1.694082
   scf:    3    -9387.950160    -9385.213110    -9385.213110  0.020785 -4.351775  0.631187
   scf:    4    -9385.548988    -9385.389162    -9385.389162  0.004902 -4.285944  0.402851
   scf:    5    -9385.508803    -9385.474608    -9385.474608  0.011299 -4.118287  0.060557
   scf:    6    -9385.491005    -9385.483340    -9385.483340  0.000464 -4.103788  0.044973
   scf:    7    -9385.491115    -9385.487799    -9385.487799  0.000569 -4.093669  0.020951
   scf:    8    -9385.488428    -9385.488127    -9385.488127  0.000228 -4.094999  0.013333
   scf:    9    -9385.488446    -9385.488325    -9385.488325  0.000458 -4.098305  0.001963
   scf:   10    -9385.488332    -9385.488329    -9385.488329  0.000033 -4.098862  0.000909

SCF Convergence by DM+H criterion
max |DM_out - DM_in|         :     0.0000331518
max |H_out - H_in|      (eV) :     0.0009093990
SCF cycle converged after 10 iterations

Using DM_out to compute the final energy and forces
No. of atoms with KB's overlaping orbs in proc 0. Max # of overlaps:     220     117

siesta: E_KS(eV) =            -9385.4883

siesta: E_KS - E_eggbox =     -9385.4883

siesta: Atomic forces (eV/Ang):
----------------------------------------
   Tot    0.000000    0.000000    0.000000
----------------------------------------
   Max    1.110047
   Res    0.576266    sqrt( Sum f_i^2 / 3N )
----------------------------------------
   Max    1.110047    constrained

Stress tensor Voigt[x,y,z,yz,xz,xy] (kbar):      -13.56      -13.56      -25.70       -0.00        0.00        0.00
(Free)E + p*V (eV/cell)    -9283.6367
Target enthalpy (eV/cell)    -9385.4883

siesta: Stress tensor (static) (eV/Ang**3):
        -0.008466    0.000000    0.000000
         0.000000   -0.008466   -0.000000
         0.000000   -0.000000   -0.016043

siesta: Pressure (static):         17.61029303  kBar

siesta: Stress tensor (total) (eV/Ang**3):
        -0.008466    0.000000    0.000000
         0.000000   -0.008466   -0.000000
         0.000000   -0.000000   -0.016043

siesta: Pressure (total):         17.61029303  kBar

cgvc: No target stress found, assuming hydrostatic MD.TargetPressure.

cgvc: Target stress (kBar)
cgvc:        -0.000       0.000       0.000
cgvc:         0.000      -0.000       0.000
cgvc:         0.000       0.000      -0.000

                     ====================================
                        Begin CG opt. move =      1
                     ====================================
 Kpoints in:           84 . Kpoints trimmed:           74

siesta: k-grid: Number of k-points = 74
siesta: k-points from Monkhorst-Pack grid
siesta: k-cutoff (effective) =    30.484 Ang
siesta: k-point supercell and displacements
siesta: k-grid:     7     0     0      0.000
siesta: k-grid:     0     7     0      0.000
siesta: k-grid:     0     0     3      0.000

superc: Internal auxiliary supercell:     3 x     3 x     1  =       9
superc: Number of atoms, orbitals, and projectors:   1296  11664  14904

outcell: Unit cell vectors (Ang):
       23.327040   -0.000003   -0.000000
      -11.663523   20.201808    0.000000
       -0.000000    0.000000   20.322871

outcell: Cell vector modules (Ang)   :   23.327040   23.327040   20.322871
outcell: Cell angles (23,13,12) (deg):     90.0000     90.0000    120.0000
outcell: Cell volume (Ang**3)        :   9577.1193
<dSpData1D:S at geom step 1
  <sparsity:sparsity for geom step 1
    nrows_g=1296 nrows=1296 sparsity=.2550 nnzs=428328, refcount: 7>
  <dData1D:(new from dSpData1D) n=428328, refcount: 1>
refcount: 1>
new_DM -- step:     2
Re-using DM from previous geometries...
Number of DMs in history: 1
 DM extrapolation coefficients: 
1   1.00000
New DM after history re-use:
<dSpData2D:SpM extrapolated using coords
  <sparsity:sparsity for geom step 1
    nrows_g=1296 nrows=1296 sparsity=.2550 nnzs=428328, refcount: 9>
  <dData2D:(temp array for extrapolation) n=428328 m=1, refcount: 1>
refcount: 1>
Note: For starting DM, Qtot, Tr[D*S] =        360.00000000        357.03221940
No. of atoms with KB's overlaping orbs in proc 0. Max # of overlaps:     220     117

InitMesh: MESH = 216 x 216 x 216 = 10077696
InitMesh: Mesh cutoff (required, used) =   300.000   312.205 Ry
New grid distribution [1]: sub = 2

        iscf     Eharris(eV)        E_KS(eV)     FreeEng(eV)     dDmax    Ef(eV) dHmax(eV)
   scf:    1    -9395.784845    -9388.849489    -9388.849489  0.014907 -4.221228  0.088290
   scf:    2    -9388.845194    -9388.853625    -9388.853625  0.002471 -4.221964  0.046295
   scf:    3    -9388.861227    -9388.859032    -9388.859032  0.001173 -4.225847  0.022017
   scf:    4    -9388.859174    -9388.859105    -9388.859105  0.000148 -4.228869  0.018458
   scf:    5    -9388.859445    -9388.859284    -9388.859284  0.000349 -4.235677  0.006626
   scf:    6    -9388.859357    -9388.859323    -9388.859323  0.000065 -4.236657  0.002947
   scf:    7    -9388.859342    -9388.859334    -9388.859334  0.000050 -4.237261  0.000209

SCF Convergence by DM+H criterion
max |DM_out - DM_in|         :     0.0000496413
max |H_out - H_in|      (eV) :     0.0002088308
SCF cycle converged after 7 iterations

Using DM_out to compute the final energy and forces
No. of atoms with KB's overlaping orbs in proc 0. Max # of overlaps:     220     117

siesta: E_KS(eV) =            -9388.8593

siesta: Atomic forces (eV/Ang):
----------------------------------------
   Tot   -0.000000   -0.000000   -0.000000
----------------------------------------
   Max    1.130724
   Res    0.526030    sqrt( Sum f_i^2 / 3N )
----------------------------------------
   Max    1.130724    constrained

Stress tensor Voigt[x,y,z,yz,xz,xy] (kbar):       -7.95       -7.95      -15.91       -0.00        0.00        0.00
(Free)E + p*V (eV/cell)    -9325.4683
Target enthalpy (eV/cell)    -9388.8593

siesta: Stress tensor (static) (eV/Ang**3):
        -0.004964    0.000000    0.000000
         0.000000   -0.004963   -0.000000
         0.000000   -0.000000   -0.009930

siesta: Pressure (static):         10.60481618  kBar

siesta: Stress tensor (total) (eV/Ang**3):
        -0.004964    0.000000    0.000000
         0.000000   -0.004963   -0.000000
         0.000000   -0.000000   -0.009930

siesta: Pressure (total):         10.60481618  kBar

                     ====================================
                        Begin CG opt. move =      2
                     ====================================
 Kpoints in:           84 . Kpoints trimmed:           74

siesta: k-grid: Number of k-points = 74
siesta: k-points from Monkhorst-Pack grid
siesta: k-cutoff (effective) =    31.119 Ang
siesta: k-point supercell and displacements
siesta: k-grid:     7     0     0      0.000
siesta: k-grid:     0     7     0      0.000
siesta: k-grid:     0     0     3      0.000

superc: Internal auxiliary supercell:     3 x     3 x     1  =       9
superc: Number of atoms, orbitals, and projectors:   1296  11664  14904

outcell: Unit cell vectors (Ang):
       23.585394   -0.000007   -0.000001
      -11.792704   20.425547    0.000001
       -0.000001    0.000000   20.746213

outcell: Cell vector modules (Ang)   :   23.585394   23.585394   20.746213
outcell: Cell angles (23,13,12) (deg):     90.0000     90.0000    120.0000
outcell: Cell volume (Ang**3)        :   9994.3738
<dSpData1D:S at geom step 2
  <sparsity:sparsity for geom step 2
    nrows_g=1296 nrows=1296 sparsity=.2527 nnzs=424440, refcount: 7>
  <dData1D:(new from dSpData1D) n=424440, refcount: 1>
refcount: 1>
new_DM -- step:     3
Re-using DM from previous geometries...
Number of DMs in history: 1
 DM extrapolation coefficients: 
1   1.00000
New DM after history re-use:
<dSpData2D:SpM extrapolated using coords
  <sparsity:sparsity for geom step 2
    nrows_g=1296 nrows=1296 sparsity=.2527 nnzs=424440, refcount: 9>
  <dData2D:(temp array for extrapolation) n=424440 m=1, refcount: 1>
refcount: 1>
Note: For starting DM, Qtot, Tr[D*S] =        360.00000000        356.07591297
No. of atoms with KB's overlaping orbs in proc 0. Max # of overlaps:     220     117

InitMesh: MESH = 216 x 216 x 240 = 11197440
InitMesh: Mesh cutoff (required, used) =   300.000   309.074 Ry
New grid distribution [1]: sub = 2

        iscf     Eharris(eV)        E_KS(eV)     FreeEng(eV)     dDmax    Ef(eV) dHmax(eV)
   scf:    1    -9399.780830    -9391.123505    -9391.123505  0.021013 -4.312966  0.111304
   scf:    2    -9391.113092    -9391.129283    -9391.129283  0.003206 -4.311560  0.063773
   scf:    3    -9391.142497    -9391.138940    -9391.138940  0.001586 -4.317646  0.030787
   scf:    4    -9391.139255    -9391.139100    -9391.139100  0.000203 -4.321564  0.025478
   scf:    5    -9391.139807    -9391.139475    -9391.139475  0.000505 -4.331130  0.007794
   scf:    6    -9391.139580    -9391.139531    -9391.139531  0.000082 -4.332310  0.003291
   scf:    7    -9391.139555    -9391.139545    -9391.139545  0.000058 -4.332994  0.000203

SCF Convergence by DM+H criterion
max |DM_out - DM_in|         :     0.0000575052
max |H_out - H_in|      (eV) :     0.0002031185
SCF cycle converged after 7 iterations

Using DM_out to compute the final energy and forces
No. of atoms with KB's overlaping orbs in proc 0. Max # of overlaps:     220     117

siesta: E_KS(eV) =            -9391.1395

siesta: Atomic forces (eV/Ang):
----------------------------------------
   Tot    0.000000    0.000000   -0.000000
----------------------------------------
   Max    1.408042
   Res    0.575106    sqrt( Sum f_i^2 / 3N )
----------------------------------------
   Max    1.408042    constrained

Stress tensor Voigt[x,y,z,yz,xz,xy] (kbar):       -1.48       -1.48       -4.76        0.00       -0.00        0.00
(Free)E + p*V (eV/cell)    -9375.1073
Target enthalpy (eV/cell)    -9391.1395

siesta: Stress tensor (static) (eV/Ang**3):
        -0.000921    0.000000   -0.000000
         0.000000   -0.000921    0.000000
        -0.000000    0.000000   -0.002970

siesta: Pressure (static):          2.57008711  kBar

siesta: Stress tensor (total) (eV/Ang**3):
        -0.000921    0.000000   -0.000000
         0.000000   -0.000921    0.000000
        -0.000000    0.000000   -0.002970

siesta: Pressure (total):          2.57008711  kBar

                     ====================================
                        Begin CG opt. move =      3
                     ====================================
 Kpoints in:           84 . Kpoints trimmed:           74

siesta: k-grid: Number of k-points = 74
siesta: k-points from Monkhorst-Pack grid
siesta: k-cutoff (effective) =    31.754 Ang
siesta: k-point supercell and displacements
siesta: k-grid:     7     0     0      0.000
siesta: k-grid:     0     7     0      0.000
siesta: k-grid:     0     0     3      0.000

superc: Internal auxiliary supercell:     3 x     3 x     1  =       9
superc: Number of atoms, orbitals, and projectors:   1296  11664  14904

outcell: Unit cell vectors (Ang):
       23.843749   -0.000012   -0.000001
      -11.921885   20.649286    0.000001
       -0.000001    0.000001   21.169555

outcell: Cell vector modules (Ang)   :   23.843749   23.843749   21.169555
outcell: Cell angles (23,13,12) (deg):     90.0000     90.0000    120.0001
outcell: Cell volume (Ang**3)        :  10422.9626
<dSpData1D:S at geom step 3
  <sparsity:sparsity for geom step 3
    nrows_g=1296 nrows=1296 sparsity=.2527 nnzs=424440, refcount: 7>
  <dData1D:(new from dSpData1D) n=424440, refcount: 1>
refcount: 1>
new_DM -- step:     4
Re-using DM from previous geometries...
Number of DMs in history: 1
 DM extrapolation coefficients: 
1   1.00000
New DM after history re-use:
<dSpData2D:SpM extrapolated using coords
  <sparsity:sparsity for geom step 3
    nrows_g=1296 nrows=1296 sparsity=.2527 nnzs=424440, refcount: 9>
  <dData2D:(temp array for extrapolation) n=424440 m=1, refcount: 1>
refcount: 1>
Note: For starting DM, Qtot, Tr[D*S] =        360.00000000        356.04899094
No. of atoms with KB's overlaping orbs in proc 0. Max # of overlaps:     220     117

InitMesh: MESH = 216 x 216 x 240 = 11197440
InitMesh: Mesh cutoff (required, used) =   300.000   302.412 Ry
New grid distribution [1]: sub = 2

        iscf     Eharris(eV)        E_KS(eV)     FreeEng(eV)     dDmax    Ef(eV) dHmax(eV)
   scf:    1    -9399.378945    -9391.223142    -9391.223142  0.022676 -4.335899  0.107369
   scf:    2    -9391.208795    -9391.227572    -9391.227572  0.003188 -4.331168  0.068306
   scf:    3    -9391.241500    -9391.238032    -9391.238032  0.001645 -4.338853  0.032655
   scf:    4    -9391.238434    -9391.238235    -9391.238235  0.000206 -4.342700  0.026694
   scf:    5    -9391.239072    -9391.238684    -9391.238684  0.000546 -4.352955  0.006559
   scf:    6    -9391.238762    -9391.238726    -9391.238726  0.000074 -4.353970  0.002615
   scf:    7    -9391.238742    -9391.238735    -9391.238735  0.000047 -4.354522  0.000141

SCF Convergence by DM+H criterion
max |DM_out - DM_in|         :     0.0000471685
max |H_out - H_in|      (eV) :     0.0001409692
SCF cycle converged after 7 iterations

Using DM_out to compute the final energy and forces
No. of atoms with KB's overlaping orbs in proc 0. Max # of overlaps:     220     117

siesta: E_KS(eV) =            -9391.2387

siesta: Atomic forces (eV/Ang):
----------------------------------------
   Tot   -0.000000   -0.000000   -0.000000
----------------------------------------
   Max    1.631327
   Res    0.691685    sqrt( Sum f_i^2 / 3N )
----------------------------------------
   Max    1.631327    constrained

Stress tensor Voigt[x,y,z,yz,xz,xy] (kbar):        3.85        3.85        4.60        0.00       -0.00        0.00
(Free)E + p*V (eV/cell)    -9417.9083
Target enthalpy (eV/cell)    -9391.2387

siesta: Stress tensor (static) (eV/Ang**3):
         0.002402    0.000000   -0.000000
         0.000000    0.002402    0.000000
        -0.000000    0.000000    0.002873

siesta: Pressure (static):         -4.09953602  kBar

siesta: Stress tensor (total) (eV/Ang**3):
         0.002402    0.000000   -0.000000
         0.000000    0.002402    0.000000
        -0.000000    0.000000    0.002873

siesta: Pressure (total):         -4.09953602  kBar

                     ====================================
                        Begin CG opt. move =      4
                     ====================================
 Kpoints in:           84 . Kpoints trimmed:           74

siesta: k-grid: Number of k-points = 74
siesta: k-points from Monkhorst-Pack grid
siesta: k-cutoff (effective) =    31.471 Ang
siesta: k-point supercell and displacements
siesta: k-grid:     7     0     0      0.000
siesta: k-grid:     0     7     0      0.000
siesta: k-grid:     0     0     3      0.000

superc: Internal auxiliary supercell:     3 x     3 x     1  =       9
superc: Number of atoms, orbitals, and projectors:   1296  11664  14904

outcell: Unit cell vectors (Ang):
       23.728496   -0.000010   -0.000001
      -11.864256   20.549475    0.000001
       -0.000001    0.000001   20.980700

outcell: Cell vector modules (Ang)   :   23.728496   23.728496   20.980700
outcell: Cell angles (23,13,12) (deg):     90.0000     90.0000    120.0000
outcell: Cell volume (Ang**3)        :  10230.3576
<dSpData1D:S at geom step 4
  <sparsity:sparsity for geom step 4
    nrows_g=1296 nrows=1296 sparsity=.2527 nnzs=424440, refcount: 7>
  <dData1D:(new from dSpData1D) n=424440, refcount: 1>
refcount: 1>
new_DM -- step:     5
Re-using DM from previous geometries...
Number of DMs in history: 1
 DM extrapolation coefficients: 
1   1.00000
New DM after history re-use:
<dSpData2D:SpM extrapolated using coords
  <sparsity:sparsity for geom step 4
    nrows_g=1296 nrows=1296 sparsity=.2527 nnzs=424440, refcount: 9>
  <dData2D:(temp array for extrapolation) n=424440 m=1, refcount: 1>
refcount: 1>
Note: For starting DM, Qtot, Tr[D*S] =        360.00000000        361.75960719
No. of atoms with KB's overlaping orbs in proc 0. Max # of overlaps:     220     117

InitMesh: MESH = 216 x 216 x 240 = 11197440
InitMesh: Mesh cutoff (required, used) =   300.000   305.357 Ry
New grid distribution [1]: sub = 2

        iscf     Eharris(eV)        E_KS(eV)     FreeEng(eV)     dDmax    Ef(eV) dHmax(eV)
   scf:    1    -9387.971994    -9391.441859    -9391.441859  0.010310 -4.361432  0.047314
   scf:    2    -9391.439764    -9391.442814    -9391.442814  0.001367 -4.361560  0.027511
   scf:    3    -9391.445227    -9391.444594    -9391.444594  0.000685 -4.359157  0.013545
   scf:    4    -9391.444654    -9391.444624    -9391.444624  0.000088 -4.357457  0.011266
   scf:    5    -9391.444763    -9391.444698    -9391.444698  0.000223 -4.353190  0.003449
   scf:    6    -9391.444719    -9391.444709    -9391.444709  0.000037 -4.352645  0.001435
   scf:    7    -9391.444714    -9391.444712    -9391.444712  0.000025 -4.352335  0.000091

SCF Convergence by DM+H criterion
max |DM_out - DM_in|         :     0.0000252176
max |H_out - H_in|      (eV) :     0.0000911009
SCF cycle converged after 7 iterations

Using DM_out to compute the final energy and forces
No. of atoms with KB's overlaping orbs in proc 0. Max # of overlaps:     220     117

siesta: E_KS(eV) =            -9391.4447

siesta: Atomic forces (eV/Ang):
----------------------------------------
   Tot    0.000000    0.000000   -0.000000
----------------------------------------
   Max    1.537951
   Res    0.635652    sqrt( Sum f_i^2 / 3N )
----------------------------------------
   Max    1.537951    constrained

Stress tensor Voigt[x,y,z,yz,xz,xy] (kbar):        1.63        1.63        0.64        0.00       -0.00        0.00
(Free)E + p*V (eV/cell)    -9399.7242
Target enthalpy (eV/cell)    -9391.4447

siesta: Stress tensor (static) (eV/Ang**3):
         0.001015    0.000000   -0.000000
         0.000000    0.001015    0.000000
        -0.000000    0.000000    0.000398

siesta: Pressure (static):         -1.29665794  kBar

siesta: Stress tensor (total) (eV/Ang**3):
         0.001015    0.000000   -0.000000
         0.000000    0.001015    0.000000
        -0.000000    0.000000    0.000398

siesta: Pressure (total):         -1.29665794  kBar

cgvc: Finished line minimization    1.  Mean atomic displacement =    0.0506

                     ====================================
                        Begin CG opt. move =      5
                     ====================================
 Kpoints in:           84 . Kpoints trimmed:           74

siesta: k-grid: Number of k-points = 74
siesta: k-points from Monkhorst-Pack grid
siesta: k-cutoff (effective) =    31.891 Ang
siesta: k-point supercell and displacements
siesta: k-grid:     7     0     0      0.000
siesta: k-grid:     0     7     0      0.000
siesta: k-grid:     0     0     3      0.000

superc: Internal auxiliary supercell:     3 x     3 x     1  =       9
superc: Number of atoms, orbitals, and projectors:   1296  11664  14904

outcell: Unit cell vectors (Ang):
       23.737310   -0.000024    0.000000
      -11.868676   20.557101   -0.000000
        0.000000   -0.000000   21.260948

outcell: Cell vector modules (Ang)   :   23.737310   23.737310   21.260948
outcell: Cell angles (23,13,12) (deg):     90.0000     90.0000    120.0001
outcell: Cell volume (Ang**3)        :  10374.7047
<dSpData1D:S at geom step 5
  <sparsity:sparsity for geom step 5
    nrows_g=1296 nrows=1296 sparsity=.2527 nnzs=424440, refcount: 7>
  <dData1D:(new from dSpData1D) n=424440, refcount: 1>
refcount: 1>
new_DM -- step:     6
Re-using DM from previous geometries...
Number of DMs in history: 1
 DM extrapolation coefficients: 
1   1.00000
New DM after history re-use:
<dSpData2D:SpM extrapolated using coords
  <sparsity:sparsity for geom step 5
    nrows_g=1296 nrows=1296 sparsity=.2527 nnzs=424440, refcount: 9>
  <dData2D:(temp array for extrapolation) n=424440 m=1, refcount: 1>
refcount: 1>
Note: For starting DM, Qtot, Tr[D*S] =        360.00000000        359.32671280
No. of atoms with KB's overlaping orbs in proc 0. Max # of overlaps:     220     117

InitMesh: MESH = 216 x 216 x 240 = 11197440
InitMesh: Mesh cutoff (required, used) =   300.000   305.130 Ry
New grid distribution [1]: sub = 2

        iscf     Eharris(eV)        E_KS(eV)     FreeEng(eV)     dDmax    Ef(eV) dHmax(eV)
   scf:    1    -9397.429970    -9394.806386    -9394.806386  0.027137 -4.309916  0.258887
   scf:    2    -9394.668790    -9394.809981    -9394.809981  0.009274 -4.086432  0.223775
   scf:    3    -9394.919755    -9394.881416    -9394.881416  0.004433 -4.189472  0.010784
   scf:    4    -9394.881549    -9394.881484    -9394.881484  0.000046 -4.187907  0.007754
   scf:    5    -9394.881604    -9394.881556    -9394.881556  0.000123 -4.183847  0.000070
   scf:    6    -9394.881556    -9394.881556    -9394.881556  0.000002 -4.183863  0.000055

SCF Convergence by DM+H criterion
max |DM_out - DM_in|         :     0.0000020207
max |H_out - H_in|      (eV) :     0.0000554520
SCF cycle converged after 6 iterations

Using DM_out to compute the final energy and forces
No. of atoms with KB's overlaping orbs in proc 0. Max # of overlaps:     220     117

siesta: E_KS(eV) =            -9394.8816

siesta: Atomic forces (eV/Ang):
----------------------------------------
   Tot    0.000000   -0.000000   -0.000000
----------------------------------------
   Max    0.817346
   Res    0.333719    sqrt( Sum f_i^2 / 3N )
----------------------------------------
   Max    0.817346    constrained

Stress tensor Voigt[x,y,z,yz,xz,xy] (kbar):        4.49        4.49       -2.86        0.00       -0.00       -0.00
(Free)E + p*V (eV/cell)    -9408.0922
Target enthalpy (eV/cell)    -9394.8816

siesta: Stress tensor (static) (eV/Ang**3):
         0.002801   -0.000000   -0.000000
        -0.000000    0.002801    0.000000
        -0.000000    0.000000   -0.001782

siesta: Pressure (static):         -2.04012744  kBar

siesta: Stress tensor (total) (eV/Ang**3):
         0.002801   -0.000000   -0.000000
        -0.000000    0.002801    0.000000
        -0.000000    0.000000   -0.001782

siesta: Pressure (total):         -2.04012744  kBar

                     ====================================
                        Begin CG opt. move =      6
                     ====================================
 Kpoints in:           84 . Kpoints trimmed:           74

siesta: k-grid: Number of k-points = 74
siesta: k-points from Monkhorst-Pack grid
siesta: k-cutoff (effective) =    32.526 Ang
siesta: k-point supercell and displacements
siesta: k-grid:     7     0     0      0.000
siesta: k-grid:     0     7     0      0.000
siesta: k-grid:     0     0     3      0.000

superc: Internal auxiliary supercell:     3 x     3 x     1  =       9
superc: Number of atoms, orbitals, and projectors:   1296  11664  14904

outcell: Unit cell vectors (Ang):
       23.750625   -0.000046    0.000003
      -11.875353   20.568622   -0.000003
        0.000002   -0.000001   21.684289

outcell: Cell vector modules (Ang)   :   23.750625   23.750625   21.684289
outcell: Cell angles (23,13,12) (deg):     90.0000     90.0000    120.0002
outcell: Cell volume (Ang**3)        :  10593.1455
<dSpData1D:S at geom step 6
  <sparsity:sparsity for geom step 6
    nrows_g=1296 nrows=1296 sparsity=.2517 nnzs=422712, refcount: 7>
  <dData1D:(new from dSpData1D) n=422712, refcount: 1>
refcount: 1>
new_DM -- step:     7
Re-using DM from previous geometries...
Number of DMs in history: 1
 DM extrapolation coefficients: 
1   1.00000
New DM after history re-use:
<dSpData2D:SpM extrapolated using coords
  <sparsity:sparsity for geom step 6
    nrows_g=1296 nrows=1296 sparsity=.2517 nnzs=422712, refcount: 9>
  <dData2D:(temp array for extrapolation) n=422712 m=1, refcount: 1>
refcount: 1>
Note: For starting DM, Qtot, Tr[D*S] =        360.00000000        358.18698155
No. of atoms with KB's overlaping orbs in proc 0. Max # of overlaps:     220     117

InitMesh: MESH = 216 x 216 x 240 = 11197440
InitMesh: Mesh cutoff (required, used) =   300.000   304.788 Ry
New grid distribution [1]: sub = 2

        iscf     Eharris(eV)        E_KS(eV)     FreeEng(eV)     dDmax    Ef(eV) dHmax(eV)
   scf:    1    -9398.711095    -9395.862119    -9395.862119  0.045753 -4.038303  0.474180
   scf:    2    -9395.382443    -9395.885799    -9395.885799  0.012993 -3.634754  0.416881
   scf:    3    -9396.280353    -9396.143284    -9396.143284  0.006371 -3.822395  0.013297
   scf:    4    -9396.143678    -9396.143485    -9396.143485  0.000135 -3.820159  0.010113
   scf:    5    -9396.143842    -9396.143695    -9396.143695  0.000359 -3.813726  0.000757
   scf:    6    -9396.143700    -9396.143698    -9396.143698  0.000019 -3.813741  0.000502

SCF Convergence by DM+H criterion
max |DM_out - DM_in|         :     0.0000190406
max |H_out - H_in|      (eV) :     0.0005016722
SCF cycle converged after 6 iterations

Using DM_out to compute the final energy and forces
No. of atoms with KB's overlaping orbs in proc 0. Max # of overlaps:     220     117

siesta: E_KS(eV) =            -9396.1437

siesta: Atomic forces (eV/Ang):
----------------------------------------
   Tot   -0.000000    0.000000   -0.000000
----------------------------------------
   Max    0.564873
   Res    0.312440    sqrt( Sum f_i^2 / 3N )
----------------------------------------
   Max    0.564873    constrained

Stress tensor Voigt[x,y,z,yz,xz,xy] (kbar):        9.00        9.00       -8.15        0.00       -0.00       -0.00
(Free)E + p*V (eV/cell)    -9417.8451
Target enthalpy (eV/cell)    -9396.1437

siesta: Stress tensor (static) (eV/Ang**3):
         0.005618   -0.000000   -0.000000
        -0.000000    0.005618    0.000000
        -0.000000    0.000000   -0.005090

siesta: Pressure (static):         -3.28225661  kBar

siesta: Stress tensor (total) (eV/Ang**3):
         0.005618   -0.000000   -0.000000
        -0.000000    0.005618    0.000000
        -0.000000    0.000000   -0.005090

siesta: Pressure (total):         -3.28225661  kBar

                     ====================================
                        Begin CG opt. move =      7
                     ====================================
 Kpoints in:           84 . Kpoints trimmed:           74

siesta: k-grid: Number of k-points = 74
siesta: k-points from Monkhorst-Pack grid
siesta: k-cutoff (effective) =    32.347 Ang
siesta: k-point supercell and displacements
siesta: k-grid:     7     0     0      0.000
siesta: k-grid:     0     7     0      0.000
siesta: k-grid:     0     0     3      0.000

superc: Internal auxiliary supercell:     3 x     3 x     1  =       9
superc: Number of atoms, orbitals, and projectors:   1296  11664  14904

outcell: Unit cell vectors (Ang):
       23.746856   -0.000040    0.000002
      -11.873463   20.565360   -0.000002
        0.000002   -0.000001   21.564443

outcell: Cell vector modules (Ang)   :   23.746856   23.746856   21.564443
outcell: Cell angles (23,13,12) (deg):     90.0000     90.0000    120.0002
outcell: Cell volume (Ang**3)        :  10531.2582
<dSpData1D:S at geom step 7
  <sparsity:sparsity for geom step 7
    nrows_g=1296 nrows=1296 sparsity=.2517 nnzs=422712, refcount: 7>
  <dData1D:(new from dSpData1D) n=422712, refcount: 1>
refcount: 1>
new_DM -- step:     8
Re-using DM from previous geometries...
Number of DMs in history: 1
 DM extrapolation coefficients: 
1   1.00000
New DM after history re-use:
<dSpData2D:SpM extrapolated using coords
  <sparsity:sparsity for geom step 7
    nrows_g=1296 nrows=1296 sparsity=.2517 nnzs=422712, refcount: 9>
  <dData2D:(temp array for extrapolation) n=422712 m=1, refcount: 1>
refcount: 1>
Note: For starting DM, Qtot, Tr[D*S] =        360.00000000        360.55902893
No. of atoms with KB's overlaping orbs in proc 0. Max # of overlaps:     220     117

InitMesh: MESH = 216 x 216 x 240 = 11197440
InitMesh: Mesh cutoff (required, used) =   300.000   304.884 Ry
New grid distribution [1]: sub = 2

        iscf     Eharris(eV)        E_KS(eV)     FreeEng(eV)     dDmax    Ef(eV) dHmax(eV)
   scf:    1    -9395.305951    -9396.324937    -9396.324937  0.013586 -3.866022  0.142153
   scf:    2    -9396.280241    -9396.326883    -9396.326883  0.004006 -3.986813  0.126261
   scf:    3    -9396.363359    -9396.350735    -9396.350735  0.001987 -3.929984  0.003338
   scf:    4    -9396.350774    -9396.350755    -9396.350755  0.000051 -3.930624  0.002631
   scf:    5    -9396.350790    -9396.350775    -9396.350775  0.000131 -3.932443  0.000415
   scf:    6    -9396.350776    -9396.350776    -9396.350776  0.000005 -3.932504  0.000222

SCF Convergence by DM+H criterion
max |DM_out - DM_in|         :     0.0000048528
max |H_out - H_in|      (eV) :     0.0002222922
SCF cycle converged after 6 iterations

Using DM_out to compute the final energy and forces
No. of atoms with KB's overlaping orbs in proc 0. Max # of overlaps:     220     117

siesta: E_KS(eV) =            -9396.3508

siesta: Atomic forces (eV/Ang):
----------------------------------------
   Tot    0.000000    0.000000    0.000000
----------------------------------------
   Max    0.357789
   Res    0.156454    sqrt( Sum f_i^2 / 3N )
----------------------------------------
   Max    0.357789    constrained

Stress tensor Voigt[x,y,z,yz,xz,xy] (kbar):        7.73        7.73       -6.66        0.00       -0.00       -0.00
(Free)E + p*V (eV/cell)    -9415.6199
Target enthalpy (eV/cell)    -9396.3508

siesta: Stress tensor (static) (eV/Ang**3):
         0.004825   -0.000000   -0.000000
        -0.000000    0.004824    0.000000
        -0.000000    0.000000   -0.004160

siesta: Pressure (static):         -2.93150963  kBar

siesta: Stress tensor (total) (eV/Ang**3):
         0.004825   -0.000000   -0.000000
        -0.000000    0.004824    0.000000
        -0.000000    0.000000   -0.004160

siesta: Pressure (total):         -2.93150963  kBar

cgvc: Finished line minimization    2.  Mean atomic displacement =    0.0344

                     ====================================
                        Begin CG opt. move =      8
                     ====================================
 Kpoints in:           84 . Kpoints trimmed:           74

siesta: k-grid: Number of k-points = 74
siesta: k-points from Monkhorst-Pack grid
siesta: k-cutoff (effective) =    32.982 Ang
siesta: k-point supercell and displacements
siesta: k-grid:     7     0     0      0.000
siesta: k-grid:     0     7     0      0.000
siesta: k-grid:     0     0     3      0.000

superc: Internal auxiliary supercell:     3 x     3 x     1  =       9
superc: Number of atoms, orbitals, and projectors:   1296  11664  14904

outcell: Unit cell vectors (Ang):
       23.380631   -0.000039    0.000005
      -11.690349   20.248201   -0.000005
        0.000004   -0.000002   21.987785

outcell: Cell vector modules (Ang)   :   23.380631   23.380631   21.987785
outcell: Cell angles (23,13,12) (deg):     90.0000     90.0000    120.0002
outcell: Cell volume (Ang**3)        :  10409.3526
<dSpData1D:S at geom step 8
  <sparsity:sparsity for geom step 8
    nrows_g=1296 nrows=1296 sparsity=.2527 nnzs=424440, refcount: 7>
  <dData1D:(new from dSpData1D) n=424440, refcount: 1>
refcount: 1>
new_DM -- step:     9
Re-using DM from previous geometries...
Number of DMs in history: 1
 DM extrapolation coefficients: 
1   1.00000
New DM after history re-use:
<dSpData2D:SpM extrapolated using coords
  <sparsity:sparsity for geom step 8
    nrows_g=1296 nrows=1296 sparsity=.2527 nnzs=424440, refcount: 9>
  <dData2D:(temp array for extrapolation) n=424440 m=1, refcount: 1>
refcount: 1>
Note: For starting DM, Qtot, Tr[D*S] =        360.00000000        361.25890963
No. of atoms with KB's overlaping orbs in proc 0. Max # of overlaps:     220     117

InitMesh: MESH = 216 x 216 x 240 = 11197440
InitMesh: Mesh cutoff (required, used) =   300.000   314.510 Ry
New grid distribution [1]: sub = 2

        iscf     Eharris(eV)        E_KS(eV)     FreeEng(eV)     dDmax    Ef(eV) dHmax(eV)
   scf:    1    -9395.595904    -9397.954199    -9397.954199  0.027796 -3.419842  0.077511
   scf:    2    -9397.938432    -9397.957332    -9397.957332  0.002164 -3.486300  0.077691
   scf:    3    -9397.973032    -9397.967816    -9397.967816  0.001055 -3.453551  0.004671
   scf:    4    -9397.968005    -9397.967913    -9397.967913  0.000148 -3.453763  0.002981
   scf:    5    -9397.968039    -9397.967982    -9397.967982  0.000229 -3.454197  0.001073
   scf:    6    -9397.967985    -9397.967983    -9397.967983  0.000015 -3.454352  0.000849

SCF Convergence by DM+H criterion
max |DM_out - DM_in|         :     0.0000145828
max |H_out - H_in|      (eV) :     0.0008494600
SCF cycle converged after 6 iterations

Using DM_out to compute the final energy and forces
No. of atoms with KB's overlaping orbs in proc 0. Max # of overlaps:     220     117

siesta: E_KS(eV) =            -9397.9680

siesta: Atomic forces (eV/Ang):
----------------------------------------
   Tot    0.000000   -0.000000   -0.000000
----------------------------------------
   Max    0.131187
   Res    0.071715    sqrt( Sum f_i^2 / 3N )
----------------------------------------
   Max    0.131187    constrained

Stress tensor Voigt[x,y,z,yz,xz,xy] (kbar):        3.91        3.91       -2.27        0.00       -0.00       -0.00
(Free)E + p*V (eV/cell)    -9409.9966
Target enthalpy (eV/cell)    -9397.9680

siesta: Stress tensor (static) (eV/Ang**3):
         0.002443   -0.000000   -0.000000
        -0.000000    0.002443    0.000000
        -0.000000    0.000000   -0.001419

siesta: Pressure (static):         -1.85140140  kBar

siesta: Stress tensor (total) (eV/Ang**3):
         0.002443   -0.000000   -0.000000
        -0.000000    0.002443    0.000000
        -0.000000    0.000000   -0.001419

siesta: Pressure (total):         -1.85140140  kBar

                     ====================================
                        Begin CG opt. move =      9
                     ====================================
 Kpoints in:           84 . Kpoints trimmed:           74

siesta: k-grid: Number of k-points = 74
siesta: k-points from Monkhorst-Pack grid
siesta: k-cutoff (effective) =    33.617 Ang
siesta: k-point supercell and displacements
siesta: k-grid:     7     0     0      0.000
siesta: k-grid:     0     7     0      0.000
siesta: k-grid:     0     0     3      0.000

superc: Internal auxiliary supercell:     3 x     3 x     1  =       9
superc: Number of atoms, orbitals, and projectors:   1296  11664  14904

outcell: Unit cell vectors (Ang):
       23.014405   -0.000037    0.000008
      -11.507235   19.931041   -0.000008
        0.000007   -0.000004   22.411126

outcell: Cell vector modules (Ang)   :   23.014405   23.014405   22.411126
outcell: Cell angles (23,13,12) (deg):     90.0000     90.0000    120.0002
outcell: Cell volume (Ang**3)        :  10279.9979
<dSpData1D:S at geom step 9
  <sparsity:sparsity for geom step 9
    nrows_g=1296 nrows=1296 sparsity=.2545 nnzs=427464, refcount: 7>
  <dData1D:(new from dSpData1D) n=427464, refcount: 1>
refcount: 1>
new_DM -- step:    10
Re-using DM from previous geometries...
Number of DMs in history: 1
 DM extrapolation coefficients: 
1   1.00000
New DM after history re-use:
<dSpData2D:SpM extrapolated using coords
  <sparsity:sparsity for geom step 9
    nrows_g=1296 nrows=1296 sparsity=.2545 nnzs=427464, refcount: 9>
  <dData2D:(temp array for extrapolation) n=427464 m=1, refcount: 1>
refcount: 1>
Note: For starting DM, Qtot, Tr[D*S] =        360.00000000        361.03686314
No. of atoms with KB's overlaping orbs in proc 0. Max # of overlaps:     220     117

InitMesh: MESH = 216 x 216 x 240 = 11197440
InitMesh: Mesh cutoff (required, used) =   300.000   316.955 Ry
New grid distribution [1]: sub = 2

        iscf     Eharris(eV)        E_KS(eV)     FreeEng(eV)     dDmax    Ef(eV) dHmax(eV)
   scf:    1    -9395.361935    -9398.190382    -9398.190382  0.026515 -2.980757  0.057545
   scf:    2    -9398.181601    -9398.192056    -9398.192056  0.001645 -3.031121  0.059330
   scf:    3    -9398.200708    -9398.197871    -9398.197871  0.000809 -3.006083  0.003858
   scf:    4    -9398.198009    -9398.197942    -9398.197942  0.000122 -3.006333  0.002443
   scf:    5    -9398.198034    -9398.197992    -9398.197992  0.000188 -3.006807  0.000988
   scf:    6    -9398.197994    -9398.197993    -9398.197993  0.000013 -3.006954  0.000771

SCF Convergence by DM+H criterion
max |DM_out - DM_in|         :     0.0000134176
max |H_out - H_in|      (eV) :     0.0007710924
SCF cycle converged after 6 iterations

Using DM_out to compute the final energy and forces
No. of atoms with KB's overlaping orbs in proc 0. Max # of overlaps:     220     117

siesta: E_KS(eV) =            -9398.1980

siesta: Atomic forces (eV/Ang):
----------------------------------------
   Tot   -0.000000    0.000000   -0.000000
----------------------------------------
   Max    0.136603
   Res    0.063995    sqrt( Sum f_i^2 / 3N )
----------------------------------------
   Max    0.136603    constrained

Stress tensor Voigt[x,y,z,yz,xz,xy] (kbar):       -0.07       -0.07        2.18       -0.00        0.00       -0.00
(Free)E + p*V (eV/cell)    -9402.5623
Target enthalpy (eV/cell)    -9398.1980

siesta: Stress tensor (static) (eV/Ang**3):
        -0.000044   -0.000000    0.000000
        -0.000000   -0.000045   -0.000000
         0.000000   -0.000000    0.001363

siesta: Pressure (static):         -0.68018675  kBar

siesta: Stress tensor (total) (eV/Ang**3):
        -0.000044   -0.000000    0.000000
        -0.000000   -0.000045   -0.000000
         0.000000   -0.000000    0.001363

siesta: Pressure (total):         -0.68018675  kBar

                     ====================================
                        Begin CG opt. move =     10
                     ====================================
 Kpoints in:           84 . Kpoints trimmed:           74

siesta: k-grid: Number of k-points = 74
siesta: k-points from Monkhorst-Pack grid
siesta: k-cutoff (effective) =    33.394 Ang
siesta: k-point supercell and displacements
siesta: k-grid:     7     0     0      0.000
siesta: k-grid:     0     7     0      0.000
siesta: k-grid:     0     0     3      0.000

superc: Internal auxiliary supercell:     3 x     3 x     1  =       9
superc: Number of atoms, orbitals, and projectors:   1296  11664  14904

outcell: Unit cell vectors (Ang):
       23.142740   -0.000038    0.000007
      -11.571402   20.042182   -0.000007
        0.000006   -0.000003   22.262777

outcell: Cell vector modules (Ang)   :   23.142740   23.142740   22.262777
outcell: Cell angles (23,13,12) (deg):     90.0000     90.0000    120.0002
outcell: Cell volume (Ang**3)        :  10326.1563
<dSpData1D:S at geom step 10
  <sparsity:sparsity for geom step 10
    nrows_g=1296 nrows=1296 sparsity=.2545 nnzs=427464, refcount: 7>
  <dData1D:(new from dSpData1D) n=427464, refcount: 1>
refcount: 1>
new_DM -- step:    11
Re-using DM from previous geometries...
Number of DMs in history: 1
 DM extrapolation coefficients: 
1   1.00000
New DM after history re-use:
<dSpData2D:SpM extrapolated using coords
  <sparsity:sparsity for geom step 10
    nrows_g=1296 nrows=1296 sparsity=.2545 nnzs=427464, refcount: 9>
  <dData2D:(temp array for extrapolation) n=427464 m=1, refcount: 1>
refcount: 1>
No. of atoms with KB's overlaping orbs in proc 0. Max # of overlaps:     220     117

InitMesh: MESH = 216 x 216 x 240 = 11197440
InitMesh: Mesh cutoff (required, used) =   300.000   321.010 Ry
New grid distribution [1]: sub = 2

        iscf     Eharris(eV)        E_KS(eV)     FreeEng(eV)     dDmax    Ef(eV) dHmax(eV)
   scf:    1    -9399.315147    -9398.278642    -9398.278642  0.009063 -2.934767  0.014888
   scf:    2    -9398.278210    -9398.278897    -9398.278897  0.000450 -2.921762  0.015278
   scf:    3    -9398.279535    -9398.279327    -9398.279327  0.000219 -2.928144  0.001294
   scf:    4    -9398.279343    -9398.279335    -9398.279335  0.000042 -2.928086  0.000815

SCF Convergence by DM+H criterion
max |DM_out - DM_in|         :     0.0000421876
max |H_out - H_in|      (eV) :     0.0008151159
SCF cycle converged after 4 iterations

Using DM_out to compute the final energy and forces
No. of atoms with KB's overlaping orbs in proc 0. Max # of overlaps:     220     117

siesta: E_KS(eV) =            -9398.2793

siesta: Atomic forces (eV/Ang):
----------------------------------------
   Tot   -0.000000    0.000000    0.000000
----------------------------------------
   Max    0.123684
   Res    0.050553    sqrt( Sum f_i^2 / 3N )
----------------------------------------
   Max    0.123684    constrained

Stress tensor Voigt[x,y,z,yz,xz,xy] (kbar):        1.33        1.33        0.59       -0.00        0.00       -0.00
(Free)E + p*V (eV/cell)    -9405.2670
Target enthalpy (eV/cell)    -9398.2793

siesta: Stress tensor (static) (eV/Ang**3):
         0.000832   -0.000000    0.000000
        -0.000000    0.000832   -0.000000
         0.000000   -0.000000    0.000367

siesta: Pressure (static):         -1.08418760  kBar

siesta: Stress tensor (total) (eV/Ang**3):
         0.000832   -0.000000    0.000000
        -0.000000    0.000832   -0.000000
         0.000000   -0.000000    0.000367

siesta: Pressure (total):         -1.08418760  kBar

cgvc: Finished line minimization    3.  Mean atomic displacement =    0.0328

                     ====================================
                        Begin CG opt. move =     11
                     ====================================
 Kpoints in:           84 . Kpoints trimmed:           74

siesta: k-grid: Number of k-points = 74
siesta: k-points from Monkhorst-Pack grid
siesta: k-cutoff (effective) =    32.759 Ang
siesta: k-point supercell and displacements
siesta: k-grid:     7     0     0      0.000
siesta: k-grid:     0     7     0      0.000
siesta: k-grid:     0     0     3      0.000

superc: Internal auxiliary supercell:     3 x     3 x     1  =       9
superc: Number of atoms, orbitals, and projectors:   1296  11664  14904

outcell: Unit cell vectors (Ang):
       22.867278    0.000022   -0.000004
      -11.433620   19.803654    0.000004
       -0.000003    0.000002   21.839435

outcell: Cell vector modules (Ang)   :   22.867278   22.867278   21.839435
outcell: Cell angles (23,13,12) (deg):     90.0000     90.0000    119.9999
outcell: Cell volume (Ang**3)        :   9890.1175
<dSpData1D:S at geom step 11
  <sparsity:sparsity for geom step 11
    nrows_g=1296 nrows=1296 sparsity=.2566 nnzs=430920, refcount: 7>
  <dData1D:(new from dSpData1D) n=430920, refcount: 1>
refcount: 1>
new_DM -- step:    12
Re-using DM from previous geometries...
Number of DMs in history: 1
 DM extrapolation coefficients: 
1   1.00000
New DM after history re-use:
<dSpData2D:SpM extrapolated using coords
  <sparsity:sparsity for geom step 11
    nrows_g=1296 nrows=1296 sparsity=.2566 nnzs=430920, refcount: 9>
  <dData2D:(temp array for extrapolation) n=430920 m=1, refcount: 1>
refcount: 1>
Note: For starting DM, Qtot, Tr[D*S] =        360.00000000        364.36296040
No. of atoms with KB's overlaping orbs in proc 0. Max # of overlaps:     220     117

InitMesh: MESH = 216 x 216 x 240 = 11197440
InitMesh: Mesh cutoff (required, used) =   300.000   328.790 Ry
New grid distribution [1]: sub = 2

        iscf     Eharris(eV)        E_KS(eV)     FreeEng(eV)     dDmax    Ef(eV) dHmax(eV)
   scf:    1    -9388.542693    -9397.338898    -9397.338898  0.027941 -3.022495  0.285210
   scf:    2    -9397.028846    -9397.338971    -9397.338971  0.007646 -3.257793  0.322418
   scf:    3    -9397.567409    -9397.494648    -9397.494648  0.004396 -3.131923  0.020984
   scf:    4    -9397.495340    -9397.495003    -9397.495003  0.000282 -3.130330  0.013952
   scf:    5    -9397.495555    -9397.495314    -9397.495314  0.000578 -3.127237  0.000498
   scf:    6    -9397.495317    -9397.495315    -9397.495315  0.000015 -3.127319  0.000402

SCF Convergence by DM+H criterion
max |DM_out - DM_in|         :     0.0000154337
max |H_out - H_in|      (eV) :     0.0004022888
SCF cycle converged after 6 iterations

Using DM_out to compute the final energy and forces
No. of atoms with KB's overlaping orbs in proc 0. Max # of overlaps:     220     117

siesta: E_KS(eV) =            -9397.4953

siesta: Atomic forces (eV/Ang):
----------------------------------------
   Tot   -0.000000    0.000000   -0.000000
----------------------------------------
   Max    0.305851
   Res    0.149399    sqrt( Sum f_i^2 / 3N )
----------------------------------------
   Max    0.305851    constrained

Stress tensor Voigt[x,y,z,yz,xz,xy] (kbar):       -6.37       -6.37       -5.63       -0.00        0.00        0.00
(Free)E + p*V (eV/cell)    -9359.7037
Target enthalpy (eV/cell)    -9397.4953

siesta: Stress tensor (static) (eV/Ang**3):
        -0.003975    0.000000    0.000000
         0.000000   -0.003974   -0.000000
         0.000000   -0.000000   -0.003514

siesta: Pressure (static):          6.12215313  kBar

siesta: Stress tensor (total) (eV/Ang**3):
        -0.003975    0.000000    0.000000
         0.000000   -0.003974   -0.000000
         0.000000   -0.000000   -0.003514

siesta: Pressure (total):          6.12215313  kBar

                     ====================================
                        Begin CG opt. move =     12
                     ====================================
 Kpoints in:           84 . Kpoints trimmed:           74

siesta: k-grid: Number of k-points = 74
siesta: k-points from Monkhorst-Pack grid
siesta: k-cutoff (effective) =    33.280 Ang
siesta: k-point supercell and displacements
siesta: k-grid:     7     0     0      0.000
siesta: k-grid:     0     7     0      0.000
siesta: k-grid:     0     0     3      0.000

superc: Internal auxiliary supercell:     3 x     3 x     1  =       9
superc: Number of atoms, orbitals, and projectors:   1296  11664  14904

outcell: Unit cell vectors (Ang):
       23.093189   -0.000027    0.000005
      -11.546617   19.999274   -0.000005
        0.000004   -0.000002   22.186625

outcell: Cell vector modules (Ang)   :   23.093189   23.093189   22.186625
outcell: Cell angles (23,13,12) (deg):     90.0000     90.0000    120.0001
outcell: Cell volume (Ang**3)        :  10246.8196
<dSpData1D:S at geom step 12
  <sparsity:sparsity for geom step 12
    nrows_g=1296 nrows=1296 sparsity=.2545 nnzs=427464, refcount: 7>
  <dData1D:(new from dSpData1D) n=427464, refcount: 1>
refcount: 1>
new_DM -- step:    13
Re-using DM from previous geometries...
Number of DMs in history: 1
 DM extrapolation coefficients: 
1   1.00000
New DM after history re-use:
<dSpData2D:SpM extrapolated using coords
  <sparsity:sparsity for geom step 12
    nrows_g=1296 nrows=1296 sparsity=.2545 nnzs=427464, refcount: 9>
  <dData2D:(temp array for extrapolation) n=427464 m=1, refcount: 1>
refcount: 1>
Note: For starting DM, Qtot, Tr[D*S] =        360.00000000        356.36919434
No. of atoms with KB's overlaping orbs in proc 0. Max # of overlaps:     220     117

InitMesh: MESH = 216 x 216 x 240 = 11197440
InitMesh: Mesh cutoff (required, used) =   300.000   322.389 Ry
New grid distribution [1]: sub = 2

        iscf     Eharris(eV)        E_KS(eV)     FreeEng(eV)     dDmax    Ef(eV) dHmax(eV)
   scf:    1    -9405.147494    -9398.209265    -9398.209265  0.023101 -3.053156  0.243401
   scf:    2    -9397.968821    -9398.206097    -9398.206097  0.006805 -2.851182  0.279018
   scf:    3    -9398.379044    -9398.324096    -9398.324096  0.003895 -2.959246  0.017622
   scf:    4    -9398.324553    -9398.324330    -9398.324330  0.000234 -2.960742  0.011827
   scf:    5    -9398.324709    -9398.324542    -9398.324542  0.000472 -2.963538  0.000560
   scf:    6    -9398.324544    -9398.324543    -9398.324543  0.000014 -2.963454  0.000399

SCF Convergence by DM+H criterion
max |DM_out - DM_in|         :     0.0000136944
max |H_out - H_in|      (eV) :     0.0003992791
SCF cycle converged after 6 iterations

Using DM_out to compute the final energy and forces
No. of atoms with KB's overlaping orbs in proc 0. Max # of overlaps:     220     117

siesta: E_KS(eV) =            -9398.3245

siesta: Atomic forces (eV/Ang):
----------------------------------------
   Tot   -0.000000    0.000000   -0.000000
----------------------------------------
   Max    0.046887
   Res    0.022680    sqrt( Sum f_i^2 / 3N )
----------------------------------------
   Max    0.046887    constrained

Stress tensor Voigt[x,y,z,yz,xz,xy] (kbar):        0.10        0.10       -0.46       -0.00        0.00        0.00
(Free)E + p*V (eV/cell)    -9397.7678
Target enthalpy (eV/cell)    -9398.3245

siesta: Stress tensor (static) (eV/Ang**3):
         0.000062    0.000002    0.000000
         0.000002    0.000065   -0.000000
         0.000000   -0.000000   -0.000290

siesta: Pressure (static):          0.08704728  kBar

siesta: Stress tensor (total) (eV/Ang**3):
         0.000062    0.000002    0.000000
         0.000002    0.000065   -0.000000
         0.000000   -0.000000   -0.000290

siesta: Pressure (total):          0.08704728  kBar

cgvc: Finished line minimization    4.  Mean atomic displacement =    0.0059

                     ====================================
                        Begin CG opt. move =     13
                     ====================================
 Kpoints in:           84 . Kpoints trimmed:           74

siesta: k-grid: Number of k-points = 74
siesta: k-points from Monkhorst-Pack grid
siesta: k-cutoff (effective) =    33.432 Ang
siesta: k-point supercell and displacements
siesta: k-grid:     7     0     0      0.000
siesta: k-grid:     0     7     0      0.000
siesta: k-grid:     0     0     3      0.000

superc: Internal auxiliary supercell:     3 x     3 x     1  =       9
superc: Number of atoms, orbitals, and projectors:   1296  11664  14904

outcell: Unit cell vectors (Ang):
       23.062015   -0.000913   -0.000006
      -11.531798   19.971834    0.000006
       -0.000005    0.000003   22.288159

outcell: Cell vector modules (Ang)   :   23.062015   23.062015   22.288159
outcell: Cell angles (23,13,12) (deg):     90.0000     90.0000    120.0045
outcell: Cell volume (Ang**3)        :  10265.4846
<dSpData1D:S at geom step 13
  <sparsity:sparsity for geom step 13
    nrows_g=1296 nrows=1296 sparsity=.2545 nnzs=427464, refcount: 7>
  <dData1D:(new from dSpData1D) n=427464, refcount: 1>
refcount: 1>
new_DM -- step:    14
Re-using DM from previous geometries...
Number of DMs in history: 1
 DM extrapolation coefficients: 
1   1.00000
New DM after history re-use:
<dSpData2D:SpM extrapolated using coords
  <sparsity:sparsity for geom step 13
    nrows_g=1296 nrows=1296 sparsity=.2545 nnzs=427464, refcount: 9>
  <dData2D:(temp array for extrapolation) n=427464 m=1, refcount: 1>
refcount: 1>
No. of atoms with KB's overlaping orbs in proc 0. Max # of overlaps:     220     117

InitMesh: MESH = 216 x 216 x 240 = 11197440
InitMesh: Mesh cutoff (required, used) =   300.000   320.462 Ry
New grid distribution [1]: sub = 2

        iscf     Eharris(eV)        E_KS(eV)     FreeEng(eV)     dDmax    Ef(eV) dHmax(eV)
   scf:    1    -9398.467669    -9398.262942    -9398.262942  0.010648 -3.039719  0.077239
[...]

Using DM_out to compute the final energy and forces
No. of atoms with KB's overlaping orbs in proc 0. Max # of overlaps:     220     117

siesta: E_KS(eV) =            -9398.3272

siesta: Atomic forces (eV/Ang):
----------------------------------------
   Tot    0.000000    0.000000   -0.000000
----------------------------------------
   Max    0.003975
   Res    0.001651    sqrt( Sum f_i^2 / 3N )
----------------------------------------
   Max    0.003975    constrained

Stress tensor Voigt[x,y,z,yz,xz,xy] (kbar):       -0.14       -0.14       -0.05       -0.00        0.00        0.00
(Free)E + p*V (eV/cell)    -9397.6127
Target enthalpy (eV/cell)    -9398.3272

siesta: Stress tensor (static) (eV/Ang**3):
        -0.000090    0.000001    0.000002
         0.000001   -0.000089   -0.000001
         0.000002   -0.000001   -0.000030

siesta: Pressure (static):          0.11178471  kBar

siesta: Stress tensor (total) (eV/Ang**3):
        -0.000090    0.000001    0.000002
         0.000001   -0.000089   -0.000001
         0.000002   -0.000001   -0.000030

siesta: Pressure (total):          0.11178471  kBar

                     ====================================
                        Begin CG opt. move =     16
                     ====================================
 Kpoints in:           84 . Kpoints trimmed:           74

siesta: k-grid: Number of k-points = 74
siesta: k-points from Monkhorst-Pack grid
siesta: k-cutoff (effective) =    33.297 Ang
siesta: k-point supercell and displacements
siesta: k-grid:     7     0     0      0.000
siesta: k-grid:     0     7     0      0.000
siesta: k-grid:     0     0     3      0.000

superc: Internal auxiliary supercell:     3 x     3 x     1  =       9
superc: Number of atoms, orbitals, and projectors:   1296  11664  14904

outcell: Unit cell vectors (Ang):
       23.085306    0.000078    0.000072
      -11.542585   19.992500   -0.000072
        0.000062   -0.000036   22.197861

outcell: Cell vector modules (Ang)   :   23.085306   23.085306   22.197861
outcell: Cell angles (23,13,12) (deg):     90.0003     89.9997    119.9996
outcell: Cell volume (Ang**3)        :  10245.0647
<dSpData1D:S at geom step 16
  <sparsity:sparsity for geom step 16
    nrows_g=1296 nrows=1296 sparsity=.2545 nnzs=427464, refcount: 7>
  <dData1D:(new from dSpData1D) n=427464, refcount: 1>
refcount: 1>
new_DM -- step:    17
Re-using DM from previous geometries...
Number of DMs in history: 1
 DM extrapolation coefficients: 
1   1.00000
New DM after history re-use:
<dSpData2D:SpM extrapolated using coords
  <sparsity:sparsity for geom step 16
    nrows_g=1296 nrows=1296 sparsity=.2545 nnzs=427464, refcount: 9>
  <dData2D:(temp array for extrapolation) n=427464 m=1, refcount: 1>
refcount: 1>
No. of atoms with KB's overlaping orbs in proc 0. Max # of overlaps:     220     117

InitMesh: MESH = 216 x 216 x 240 = 11197440
InitMesh: Mesh cutoff (required, used) =   300.000   322.607 Ry
New grid distribution [1]: sub = 2

        iscf     Eharris(eV)        E_KS(eV)     FreeEng(eV)     dDmax    Ef(eV) dHmax(eV)
   scf:    1    -9398.411770    -9398.327394    -9398.327394  0.000304 -2.987511  0.004001
   scf:    2    -9398.327333    -9398.327393    -9398.327393  0.000115 -2.984177  0.004458
   scf:    3    -9398.327436    -9398.327422    -9398.327422  0.000065 -2.985942  0.000220

SCF Convergence by DM+H criterion
max |DM_out - DM_in|         :     0.0000650924
max |H_out - H_in|      (eV) :     0.0002201152
SCF cycle converged after 3 iterations

Using DM_out to compute the final energy and forces
No. of atoms with KB's overlaping orbs in proc 0. Max # of overlaps:     220     117

siesta: E_KS(eV) =            -9398.3274

siesta: Atomic forces (eV/Ang):
----------------------------------------
   Tot   -0.000000   -0.000000    0.000000
----------------------------------------
   Max    0.002754
   Res    0.001231    sqrt( Sum f_i^2 / 3N )
----------------------------------------
   Max    0.002754    constrained

Stress tensor Voigt[x,y,z,yz,xz,xy] (kbar):       -0.07       -0.07        0.01       -0.00        0.00        0.00
(Free)E + p*V (eV/cell)    -9398.0416
Target enthalpy (eV/cell)    -9398.3274

siesta: Stress tensor (static) (eV/Ang**3):
        -0.000046    0.000001    0.000001
         0.000001   -0.000044   -0.000000
         0.000001   -0.000000    0.000006

siesta: Pressure (static):          0.04469309  kBar

siesta: Stress tensor (total) (eV/Ang**3):
        -0.000046    0.000001    0.000001
         0.000001   -0.000044   -0.000000
         0.000001   -0.000000    0.000006

siesta: Pressure (total):          0.04469309  kBar

outcoor: Relaxed atomic coordinates (Ang):                  
   -0.00000583    0.00000336   -0.37004370   1       1  Si
    1.92378504    1.11069972    0.37004770   1       2  Si
   -0.00000519    0.00000300   -1.87710750   2       3  H
    1.92378441    1.11070009    1.87711150   2       4  H
    3.84754512    0.00001633   -0.37003172   1       5  Si
    5.77133599    1.11071268    0.37005968   1       6  Si
    3.84754575    0.00001596   -1.87709552   2       7  H
    5.77133536    1.11071305    1.87712348   2       8  H
    7.69509606    0.00002929   -0.37001973   1       9  Si
    9.61888694    1.11072565    0.37007167   1      10  Si
    7.69509670    0.00002892   -1.87708353   2      11  H
    9.61888630    1.11072601    1.87713547   2      12  H
   11.54264701    0.00004225   -0.37000775   1      13  Si
   13.46643788    1.11073861    0.37008365   1      14  Si
   11.54264764    0.00004188   -1.87707155   2      15  H
   13.46643725    1.11073897    1.87714745   2      16  H
   15.39019796    0.00005521   -0.36999576   1      17  Si
   17.31398883    1.11075157    0.37009564   1      18  Si
   15.39019859    0.00005485   -1.87705956   2      19  H
   17.31398820    1.11075193    1.87715944   2      20  H
   19.23774890    0.00006817   -0.36998378   1      21  Si
   21.16153978    1.11076453    0.37010762   1      22  Si
   19.23774954    0.00006781   -1.87704758   2      23  H
   21.16153914    1.11076489    1.87717142   2      24  H
   -1.92377008    3.33208671   -0.37005569   1      25  Si
    0.00002080    4.44278307    0.37003571   1      26  Si
   -1.92376944    3.33208635   -1.87711949   2      27  H
    0.00002016    4.44278344    1.87709951   2      28  H
    1.92378087    3.33209968   -0.37004371   1      29  Si
    3.84757174    4.44279604    0.37004770   1      30  Si
    1.92378150    3.33209931   -1.87710750   2      31  H
    3.84757111    4.44279640    1.87711150   2      32  H
    5.77133182    3.33211264   -0.37003172   1      33  Si
    7.69512269    4.44280900    0.37005968   1      34  Si
    5.77133245    3.33211227   -1.87709552   2      35  H
    7.69512206    4.44280937    1.87712348   2      36  H
    9.61888276    3.33212560   -0.37001973   1      37  Si
   11.54267364    4.44282196    0.37007167   1      38  Si
    9.61888340    3.33212523   -1.87708353   2      39  H
   11.54267300    4.44282233    1.87713547   2      40  H
   13.46643371    3.33213856   -0.37000775   1      41  Si
   15.39022458    4.44283492    0.37008365   1      42  Si
   13.46643434    3.33213819   -1.87707155   2      43  H
   15.39022395    4.44283529    1.87714745   2      44  H
   17.31398466    3.33215152   -0.36999576   1      45  Si
   19.23777553    4.44284788    0.37009564   1      46  Si
   17.31398529    3.33215115   -1.87705956   2      47  H
   19.23777490    4.44284825    1.87715944   2      48  H
   -3.84753433    6.66417006   -0.37006768   1      49  Si
   -1.92374345    7.77486642    0.37002373   1      50  Si
   -3.84753369    6.66416970   -1.87713148   2      51  H
   -1.92374409    7.77486679    1.87708752   2      52  H
    0.00001662    6.66418303   -0.37005569   1      53  Si
    1.92380749    7.77487938    0.37003571   1      54  Si
    0.00001725    6.66418266   -1.87711949   2      55  H
    1.92380686    7.77487975    1.87709951   2      56  H
    3.84756757    6.66419599   -0.37004371   1      57  Si
    5.77135844    7.77489234    0.37004770   1      58  Si
    3.84756820    6.66419562   -1.87710751   2      59  H
    5.77135781    7.77489271    1.87711149   2      60  H
    7.69511851    6.66420895   -0.37003172   1      61  Si
    9.61890939    7.77490531    0.37005968   1      62  Si
    7.69511915    6.66420858   -1.87709552   2      63  H
    9.61890875    7.77490567    1.87712348   2      64  H
   11.54266946    6.66422191   -0.37001974   1      65  Si
   13.46646033    7.77491827    0.37007167   1      66  Si
   11.54267009    6.66422154   -1.87708354   2      67  H
   13.46645970    7.77491864    1.87713546   2      68  H
   15.39022041    6.66423487   -0.37000775   1      69  Si
   17.31401128    7.77493123    0.37008365   1      70  Si
   15.39022104    6.66423450   -1.87707155   2      71  H
   17.31401065    7.77493160    1.87714745   2      72  H
   -5.77129858    9.99625341   -0.37007967   1      73  Si
   -3.84750770   11.10694977    0.37001174   1      74  Si
   -5.77129794    9.99625304   -1.87714346   2      75  H
   -3.84750834   11.10695014    1.87707554   2      76  H
   -1.92374763    9.99626637   -0.37006768   1      77  Si
    0.00004325   11.10696273    0.37002372   1      78  Si
   -1.92374700    9.99626601   -1.87713148   2      79  H
    0.00004261   11.10696310    1.87708752   2      80  H
    1.92380332    9.99627934   -0.37005570   1      81  Si
    3.84759419   11.10697570    0.37003571   1      82  Si
    1.92380395    9.99627897   -1.87711949   2      83  H
    3.84759356   11.10697606    1.87709951   2      84  H
    5.77135426    9.99629230   -0.37004371   1      85  Si
    7.69514514   11.10698866    0.37004769   1      86  Si
    5.77135490    9.99629193   -1.87710751   2      87  H
    7.69514450   11.10698902    1.87711149   2      88  H
    9.61890521    9.99630526   -0.37003172   1      89  Si
   11.54269609   11.10700162    0.37005968   1      90  Si
    9.61890584    9.99630489   -1.87709552   2      91  H
   11.54269545   11.10700198    1.87712348   2      92  H
   13.46645616    9.99631822   -0.37001974   1      93  Si
   15.39024703   11.10701458    0.37007166   1      94  Si
   13.46645679    9.99631785   -1.87708354   2      95  H
   15.39024640   11.10701494    1.87713546   2      96  H
   -7.69506282   13.32833676   -0.37009165   1      97  Si
   -5.77127195   14.43903312    0.36999975   1      98  Si
   -7.69506219   13.32833640   -1.87715545   2      99  H
   -5.77127258   14.43903349    1.87706355   2     100  H
   -3.84751188   13.32834973   -0.37007967   1     101  Si
   -1.92372100   14.43904608    0.37001174   1     102  Si
   -3.84751124   13.32834936   -1.87714347   2     103  H
   -1.92372164   14.43904645    1.87707553   2     104  H
    0.00003907   13.32836269   -0.37006768   1     105  Si
    1.92382994   14.43905905    0.37002372   1     106  Si
    0.00003970   13.32836232   -1.87713148   2     107  H
    1.92382931   14.43905941    1.87708752   2     108  H
    3.84759002   13.32837565   -0.37005570   1     109  Si
    5.77138089   14.43907201    0.37003571   1     110  Si
    3.84759065   13.32837528   -1.87711950   2     111  H
    5.77138026   14.43907237    1.87709950   2     112  H
    7.69514096   13.32838861   -0.37004371   1     113  Si
    9.61893184   14.43908497    0.37004769   1     114  Si
    7.69514160   13.32838825   -1.87710751   2     115  H
    9.61893120   14.43908533    1.87711149   2     116  H
   11.54269191   13.32840157   -0.37003173   1     117  Si
   13.46648278   14.43909793    0.37005968   1     118  Si
   11.54269254   13.32840121   -1.87709552   2     119  H
   13.46648215   14.43909829    1.87712348   2     120  H
   -9.61882707   16.66042011   -0.37010364   1     121  Si
   -7.69503620   17.77111647    0.36998776   1     122  Si
   -9.61882644   16.66041975   -1.87716744   2     123  H
   -7.69503683   17.77111683    1.87705156   2     124  H
   -5.77127613   16.66043307   -0.37009165   1     125  Si
   -3.84748525   17.77112943    0.36999975   1     126  Si
   -5.77127549   16.66043271   -1.87715545   2     127  H
   -3.84748589   17.77112980    1.87706355   2     128  H
   -1.92372518   16.66044603   -0.37007967   1     129  Si
    0.00006570   17.77114239    0.37001173   1     130  Si
   -1.92372454   16.66044567   -1.87714347   2     131  H
    0.00006506   17.77114276    1.87707553   2     132  H
    1.92382577   16.66045900   -0.37006768   1     133  Si
    3.84761664   17.77115535    0.37002372   1     134  Si
    1.92382640   16.66045863   -1.87713148   2     135  H
    3.84761601   17.77115572    1.87708752   2     136  H
    5.77137671   16.66047196   -0.37005570   1     137  Si
    7.69516759   17.77116832    0.37003570   1     138  Si
    5.77137735   16.66047159   -1.87711950   2     139  H
    7.69516695   17.77116868    1.87709950   2     140  H
    9.61892766   16.66048492   -0.37004371   1     141  Si
   11.54271853   17.77118128    0.37004769   1     142  Si
    9.61892830   16.66048455   -1.87710751   2     143  H
   11.54271790   17.77118164    1.87711149   2     144  H

outcell: Unit cell vectors (Ang):
       23.085306    0.000078    0.000072
      -11.542585   19.992500   -0.000072
        0.000062   -0.000036   22.197861

outcell: Cell vector modules (Ang)   :   23.085306   23.085306   22.197861
outcell: Cell angles (23,13,12) (deg):     90.0003     89.9997    119.9996
outcell: Cell volume (Ang**3)        :  10245.0647

coxmol: Writing XMOL coordinates into file relaxation.xyz                                                                                                                                                                                                                      

siesta: Program's energy decomposition (eV):
siesta: Ebs     =     -3261.066421
siesta: Eions   =     16191.100025
siesta: Ena     =      5341.542231
siesta: Ekin    =      4086.850634
siesta: Enl     =      1012.393870
siesta: Eso     =         0.000000
siesta: Edftu   =         0.000000
siesta: DEna    =        32.360965
siesta: DUscf   =        27.961166
siesta: DUext   =         0.000000
siesta: Ex      =     -3307.441012
siesta: Ec      =      -400.895250
siesta: Exc     =     -3708.336263
siesta: EbV     =         0.000000
siesta: eta*DQ  =         0.000000
siesta: Emadel  =         0.000000
siesta: Emeta   =         0.000000
siesta: Emolmec =         0.000000
siesta: Ekinion =         0.000000
siesta: Eharris =     -9398.327436
siesta: Etot    =     -9398.327422
siesta: FreeEng =     -9398.327422

siesta: Final energy (eV):
siesta:  Band Struct. =   -3261.066421
siesta:       Kinetic =    4086.850634
siesta:       Hartree =   32897.668061
siesta:         Edftu =       0.000000
siesta:       Eso     =       0.000000
siesta:    Ext. field =       0.000000
siesta:         Exch. =   -3307.441012
siesta:         Corr. =    -400.895250
siesta:     Bulk bias =       0.000000
siesta:   Exch.-corr. =   -3708.336263
siesta:  Ion-electron =  -69106.865701
siesta:       Ion-ion =   26432.355847
siesta:       Ekinion =       0.000000
siesta: D3 dispersion =       0.000000
siesta:         Total =   -9398.327422
siesta:         Fermi =      -2.985942

siesta: Stress tensor (static) (eV/Ang**3):
siesta:    -0.000046    0.000001    0.000001
siesta:     0.000001   -0.000044   -0.000000
siesta:     0.000001   -0.000000    0.000006

siesta: Constrained stress tensor (static) (eV/Ang**3):
siesta:    -0.000046    0.000001    0.000001
siesta:     0.000001   -0.000044   -0.000000
siesta:     0.000001   -0.000000    0.000006

siesta: Cell volume =      10245.064688 Ang**3

siesta: Pressure (static):
siesta:                Solid            Molecule  Units
siesta:           0.00000030          0.00000039  Ry/Bohr**3
siesta:           0.00002790          0.00003593  eV/Ang**3
siesta:           0.04469309          0.05755913  kBar
(Free)E+ p_basis*V_orbitals  =       -9345.769582
(Free)Eharris+ p_basis*V_orbitals  =       -9345.769596

siesta: Electric dipole (a.u.)  =    0.000000   -0.000000   -0.000000
siesta: Electric dipole (Debye) =    0.000000   -0.000000   -0.000000

cite: Please see "relaxation.bib" for an exhaustive BiBTeX file.
cite: Please clearly indicate Siesta version in published work: 5.2.1
cite: This calculation has made use of the following articles
cite: which are encouraged to be cited in a published work.
        Primary SIESTA paper
          DOI: www.doi.org/10.1088/0953-8984/14/11/302


timer: Elapsed wall time (sec) =   10373.173
timer: CPU execution times (sec):

Routine            Calls   Time/call    Tot.time        %
siesta                 1   85316.373   85316.373   100.00
Setup                  1       1.049       1.049     0.00
bands                  1       0.000       0.000     0.00
KSV_init               1       0.000       0.000     0.00
IterGeom              17    5018.545   85315.262   100.00
geom_init             17      12.665     215.305     0.25
state_init            17       0.134       2.285     0.00
hsparse               17       0.028       0.469     0.00
overlap               17       0.068       1.154     0.00
Setup_H0              17       6.662     113.254     0.13
naefs                 34       0.001       0.024     0.00
dnaefs                34       0.000       0.010     0.00
MolMec                34       0.000       0.000     0.00
kinefsm               34       0.061       2.084     0.00
nlefsm                34       0.200       6.815     0.01
DHSCF_Init            17       6.435     109.390     0.13
DHSCF1                17       0.040       0.673     0.00
InitMesh              17       0.040       0.673     0.00
INITMESH              17       0.000       0.000     0.00
DHSCF2                17       6.395     108.717     0.13
REMESH                17       0.389       6.611     0.01
REORD                525       0.014       7.287     0.01
PHION                 17       4.715      80.147     0.09
COMM_BSC             591       0.010       5.998     0.01
POISON               152       0.598      90.850     0.11
fft                  304       0.236      71.863     0.08
setup_H              118       5.833     688.253     0.81
DHSCF                135       7.450    1005.728     1.18
DHSCF3               135       5.830     787.087     0.92
rhoofd               135       1.802     243.264     0.29
XC                   135       1.884     254.337     0.30
GXC-CellXC           135       1.830     247.008     0.29
gridxc@cellXC        135       1.830     247.008     0.29
vmat                 135       1.318     177.955     0.21
IterSCF              101     839.359   84775.246    99.37
compute_dm           101     833.525   84186.065    98.68
diagon               101     833.524   84185.952    98.68
c-eigval            7474       2.834   21179.704    24.82
c-buildHS           7474       0.131     975.775     1.14
cdiag              14948       4.893   73133.212    85.72
cdiag1             14948       0.137    2047.707     2.40
cdiag2             14948       0.516    7715.074     9.04
cdiag3             14948       4.188   62597.316    73.37
c-eigvec            7474       7.091   53001.822    62.12
cdiag4              7474       0.063     472.627     0.55
c-buildD            7474       1.338    9997.047    11.72
MIXER                 84       0.003       0.265     0.00
PostSCF               17      19.099     324.681     0.38
FINAL_HF              17      19.099     324.681     0.38
DHSCF4                17      12.861     218.641     0.26
dfscf                 17      11.998     203.968     0.24
overfsm               17       0.059       1.002     0.00
writeHSX              17       0.005       0.078     0.00
state_analysis        17       0.000       0.007     0.00
siesta_move           17       0.001       0.014     0.00
Analysis               1       0.039       0.039     0.00
optical                1       0.000       0.000     0.00
  

>> End of run:   3-JUN-2025  17:41:00
Job completed
